#     Step Nr.          Time[fs]        Kin.[a.u.]          Temp[K]            Pot.[a.u.]        Cons Qty[a.u.]        UsedTime[s]
         0            0.000000         0.273612846       300.000000000     -1102.629448594     -1102.355835748         0.000000000
         1            0.500000         0.279633819       306.601634918     -1102.634728487     -1102.356032711       206.777581990
         2            1.000000         0.278176228       305.003473713     -1102.643688340     -1102.356285322        10.394009110
         3            1.500000         0.280393422       307.434492997     -1102.653080703     -1102.356547289        14.347997617
         4            2.000000         0.282889483       310.171274159     -1102.655862600     -1102.356593452        28.983909268
         5            2.500000         0.294372846       322.762089256     -1102.653391721     -1102.356505399        24.324223254
         6            3.000000         0.293202260       321.478612092     -1102.644027094     -1102.356292113        20.496286731
         7            3.500000         0.275739443       302.331685377     -1102.631056927     -1102.356023130        26.421400141
         8            4.000000         0.264614578       290.133941924     -1102.619771042     -1102.355795899        10.557915725
         9            4.500000         0.268857948       294.786540953     -1102.613634927     -1102.355689469        27.333148371
        10            5.000000         0.262607548       287.933354685     -1102.612082629     -1102.355666725        30.624988481
        11            5.500000         0.288697192       316.539076467     -1102.616775792     -1102.355783250        10.465789467
        12            6.000000         0.295096611       323.555654134     -1102.622813260     -1102.355937950        10.441041287
        13            6.500000         0.289353988       317.259214176     -1102.629250655     -1102.356081233        11.389920156
        14            7.000000         0.287416783       315.135185470     -1102.637410482     -1102.356246228        10.463410735
        15            7.500000         0.310165102       340.077346930     -1102.641761748     -1102.356328622        10.457786418
        16            8.000000         0.323802738       355.030192820     -1102.645349103     -1102.356402515        10.471044347
        17            8.500000         0.301956868       331.077513241     -1102.645418760     -1102.356418530        10.489233650
        18            9.000000         0.286912673       314.582459298     -1102.641734958     -1102.356310656        31.174735926
        19            9.500000         0.276541909       303.211541918     -1102.635703652     -1102.356123440        31.994776182
        20           10.000000         0.260847091       286.003119536     -1102.628436222     -1102.355915126        19.711856488
        21           10.500000         0.250829117       275.019014031     -1102.621372875     -1102.355688604        10.602919087
        22           11.000000         0.252589683       276.949368713     -1102.619839890     -1102.355630752        14.990538489
        23           11.500000         0.254712048       279.276413739     -1102.626571548     -1102.355823251        31.041484628
        24           12.000000         0.265639894       291.258138722     -1102.636526005     -1102.356020668        19.603728022
        25           12.500000         0.277078124       303.799469221     -1102.645826859     -1102.356189502        28.693711758
        26           13.000000         0.276140999       302.771967344     -1102.652591961     -1102.356272544        25.644679368
        27           13.500000         0.297663960       326.370597938     -1102.655384720     -1102.356219451        27.168302245
        28           14.000000         0.292250721       320.435307919     -1102.655692042     -1102.356103565        22.526800301
        29           14.500000         0.281400579       308.538780419     -1102.654888372     -1102.356028025        10.450405162
        30           15.000000         0.286612223       314.253034545     -1102.651854052     -1102.355941964        19.653697919
        31           15.500000         0.301188497       330.235039788     -1102.649497290     -1102.355883179        10.459511656
        32           16.000000         0.299504682       328.388838219     -1102.646731418     -1102.355818637        18.915885307
        33           16.500000         0.291057519       319.127033606     -1102.645976761     -1102.355750903        10.479682453
        34           17.000000         0.291210761       319.295053980     -1102.647476574     -1102.355705892        10.433318481
        35           17.500000         0.303751951       333.045713179     -1102.652982102     -1102.355823547        10.314812515
        36           18.000000         0.299220135       328.076849934     -1102.659956618     -1102.356048442        10.362924006
        37           18.500000         0.316528355       347.054270077     -1102.662878593     -1102.356180240        10.405903332
        38           19.000000         0.312059887       342.154864507     -1102.660507582     -1102.356202008        33.072628390
        39           19.500000         0.316171730       346.663252967     -1102.656115673     -1102.356078685        36.182016756
        40           20.000000         0.299355453       328.225217601     -1102.648878514     -1102.355890093        13.490139298
        41           20.500000         0.290515955       318.533241421     -1102.643145712     -1102.355773629        10.523220420
        42           21.000000         0.292335239       320.527976606     -1102.641775355     -1102.355839829        10.523996968
        43           21.500000         0.292864229       321.107981597     -1102.641696945     -1102.355896983        10.522921558
        44           22.000000         0.298441806       327.223458584     -1102.641498294     -1102.355927731        27.723061543
        45           22.500000         0.281584966       308.740950017     -1102.641249503     -1102.355973007        29.944989532
        46           23.000000         0.268647469       294.555763713     -1102.638733432     -1102.355935123        10.475344039
        47           23.500000         0.272321768       298.584410955     -1102.640558486     -1102.355980954        10.524844840
        48           24.000000         0.280027628       307.033422556     -1102.643886369     -1102.356039317        10.464314703
        49           24.500000         0.277870189       304.667920802     -1102.647866085     -1102.356127491        10.471817221
        50           25.000000         0.275189966       301.729217683     -1102.650936078     -1102.356256634        14.225676104
        51           25.500000         0.260569407       285.698655714     -1102.652308206     -1102.356346909        10.484594524
        52           26.000000         0.260067903       285.148786102     -1102.653011744     -1102.356342919        10.462682031
        53           26.500000         0.259523824       284.552236394     -1102.650868573     -1102.356222289        10.475492373
        54           27.000000         0.258216561       283.118901723     -1102.649712215     -1102.356088336        10.486357521
        55           27.500000         0.252322957       276.656919567     -1102.649573181     -1102.356007795        10.491046559
        56           28.000000         0.250219224       274.350303124     -1102.654470790     -1102.356129352        17.988404490
        57           28.500000         0.266792766       292.522193684     -1102.663219866     -1102.356395973        21.150147665
        58           29.000000         0.270022295       296.063177827     -1102.667565255     -1102.356510507        10.435245134
        59           29.500000         0.272968396       299.293400089     -1102.671480487     -1102.356565130        10.429421794
        60           30.000000         0.276980269       303.692176295     -1102.671991386     -1102.356537916        13.814399801
        61           30.500000         0.274619786       301.104049797     -1102.671363550     -1102.356500826        10.462722573
        62           31.000000         0.274218381       300.663932520     -1102.668392698     -1102.356435724        10.463587508
        63           31.500000         0.278232801       305.065502826     -1102.666314114     -1102.356430160        10.455560770
        64           32.000000         0.291317859       319.412480537     -1102.662998566     -1102.356351195        10.495530222
        65           32.500000         0.287118339       314.807959572     -1102.660598886     -1102.356288021        10.477137163
        66           33.000000         0.277406894       304.159944898     -1102.656416776     -1102.356161111        10.451086488
        67           33.500000         0.269359451       295.336408691     -1102.654625485     -1102.356095346        10.484868992
        68           34.000000         0.284279324       311.695150794     -1102.655748156     -1102.356119225        10.502230059
        69           34.500000         0.307167002       336.790110299     -1102.663050205     -1102.356274076        10.471316203
        70           35.000000         0.309877738       339.762269572     -1102.668570830     -1102.356387568        14.225256596
        71           35.500000         0.306403989       335.953513258     -1102.670562621     -1102.356379401        10.494613659
        72           36.000000         0.294675470       323.093898243     -1102.671396058     -1102.356341668        10.336186152
        73           36.500000         0.304358645       333.710916780     -1102.670834857     -1102.356309045        10.358616393
        74           37.000000         0.291807604       319.949456255     -1102.670878157     -1102.356269137        10.364834111
        75           37.500000         0.308475946       338.225288705     -1102.673067447     -1102.356292656        10.480601832
        76           38.000000         0.283414248       310.746646682     -1102.675533624     -1102.356355391        10.492956102
        77           38.500000         0.281646563       308.808486783     -1102.678692285     -1102.356429445        10.528786857
        78           39.000000         0.287676450       315.419895249     -1102.682841958     -1102.356525077        10.569444098
        79           39.500000         0.296160721       324.722386508     -1102.682175598     -1102.356498364        10.615282714
        80           40.000000         0.285683813       313.235088653     -1102.677974318     -1102.356356637        13.332215227
        81           40.500000         0.307988658       337.691007621     -1102.673529462     -1102.356219005        10.558481749
        82           41.000000         0.283636192       310.989995645     -1102.670246716     -1102.356145174        10.559171464
        83           41.500000         0.292098231       320.268111453     -1102.671499341     -1102.356216322        10.571136508
        84           42.000000         0.319349960       350.147990618     -1102.673448769     -1102.356302368        10.523832373
        85           42.500000         0.324155512       355.416988733     -1102.673504057     -1102.356347537        10.508081995
        86           43.000000         0.300808653       329.818564682     -1102.671330785     -1102.356328113        10.509863079
        87           43.500000         0.297078691       325.728885646     -1102.670057303     -1102.356340372        10.508786462
        88           44.000000         0.300955400       329.979463578     -1102.669580757     -1102.356351231        10.451066542
        89           44.500000         0.292778428       321.013906599     -1102.667336026     -1102.356316568        10.410461925
        90           45.000000         0.274898758       301.409925937     -1102.662884544     -1102.356238183        13.272242714
        91           45.500000         0.273692113       300.086912076     -1102.659033483     -1102.356178724        10.491344366
        92           46.000000         0.263519393       288.933136856     -1102.657525460     -1102.356128008        10.488332219
        93           46.500000         0.271944812       298.171101599     -1102.657041021     -1102.356118620        10.496478003
        94           47.000000         0.261193256       286.382668675     -1102.659305313     -1102.356168408        10.512641739
        95           47.500000         0.268739647       294.656831479     -1102.662257239     -1102.356248589        10.491901945
        96           48.000000         0.277668876       304.447192794     -1102.659258383     -1102.356183994        10.470596552
        97           48.500000         0.283957697       311.342506708     -1102.654190135     -1102.356020721        10.504625283
        98           49.000000         0.275837644       302.439357540     -1102.649218764     -1102.355862121        10.494359456
        99           49.500000         0.271452640       297.631464531     -1102.647594551     -1102.355828560        10.466964234
       100           50.000000         0.259610339       284.647095630     -1102.650520153     -1102.355935729        13.224083573
       101           50.500000         0.269993665       296.031786956     -1102.655543128     -1102.356078933        10.523707345
       102           51.000000         0.273117442       299.456819300     -1102.661215689     -1102.356201154        10.484963838
       103           51.500000         0.272037750       298.273002339     -1102.662388408     -1102.356193925        10.490397602
       104           52.000000         0.271881612       298.101806459     -1102.660090195     -1102.356086814        10.409225274
       105           52.500000         0.261329875       286.532462963     -1102.656857315     -1102.355953450        10.520571109
       106           53.000000         0.257851077       282.718170421     -1102.658945705     -1102.356019583        10.469170377
       107           53.500000         0.267209384       292.978989625     -1102.663842534     -1102.356194617        10.477436777
       108           54.000000         0.273131830       299.472595150     -1102.669023867     -1102.356369503        10.475737702
       109           54.500000         0.279496678       306.451267895     -1102.674150739     -1102.356461531        10.493049677
       110           55.000000         0.269132455       295.087521461     -1102.673751209     -1102.356425879        12.803087618
       111           55.500000         0.265321275       290.908791903     -1102.669773159     -1102.356314786        10.466260053
       112           56.000000         0.277186419       303.918208075     -1102.664105670     -1102.356152559        10.487116799
       113           56.500000         0.266558642       292.265491163     -1102.660314495     -1102.356062526        10.490513530
       114           57.000000         0.280536149       307.590985112     -1102.656732764     -1102.356020483        10.461696897
       115           57.500000         0.282306491       309.532058374     -1102.656574487     -1102.356046989        10.476305682
       116           58.000000         0.276445203       303.105509345     -1102.655533039     -1102.356057184        11.615914784
       117           58.500000         0.269101032       295.053067724     -1102.657561844     -1102.356124044        10.481237710
       118           59.000000         0.278950016       305.851885599     -1102.659062945     -1102.356186541        10.479388081
       119           59.500000         0.294719772       323.142473297     -1102.658528241     -1102.356217954        10.450896144
       120           60.000000         0.290998392       319.062204389     -1102.655979178     -1102.356187313        12.910414990
       121           60.500000         0.289410294       317.320949829     -1102.654228474     -1102.356152654        10.471675623
       122           61.000000         0.293512506       321.818778240     -1102.654109831     -1102.356151272        10.461394686
       123           61.500000         0.289798790       317.746912283     -1102.653635858     -1102.356160746        10.494470265
       124           62.000000         0.290653255       318.683782528     -1102.653659111     -1102.356198626        10.500821631
       125           62.500000         0.293504719       321.810240661     -1102.655324883     -1102.356286394        10.469817098
       126           63.000000         0.289107767       316.989247313     -1102.655456745     -1102.356322046        10.483250670
       127           63.500000         0.294780902       323.209498694     -1102.654167649     -1102.356305419        10.404079612
       128           64.000000         0.277753610       304.540099089     -1102.648018535     -1102.356152763        10.365711257
       129           64.500000         0.272443653       298.718050182     -1102.641070811     -1102.355999393        10.381065670
       130           65.000000         0.271228323       297.385514249     -1102.637696521     -1102.355926513        13.057541233
       131           65.500000         0.275557079       302.131734360     -1102.638538183     -1102.355950547        10.510740638
       132           66.000000         0.285389151       312.912008988     -1102.644284875     -1102.356092329        10.525669638
       133           66.500000         0.292997469       321.254071339     -1102.648624646     -1102.356233841        10.614886820
       134           67.000000         0.294247756       322.624936364     -1102.650661681     -1102.356313493        10.574751012
       135           67.500000         0.300078568       329.018069690     -1102.651084352     -1102.356309325        10.604537271
       136           68.000000         0.302756321       331.954064659     -1102.649784365     -1102.356222999        10.572540030
       137           68.500000         0.297596561       326.296698897     -1102.647359811     -1102.356156656        10.557728197
       138           69.000000         0.273927561       300.345066394     -1102.645769829     -1102.356207648        10.543264538
       139           69.500000         0.267163874       292.929091310     -1102.643835930     -1102.356259859        10.557233889
       140           70.000000         0.278498842       305.357200793     -1102.644009474     -1102.356288923        12.934047077
       141           70.500000         0.264609756       290.128654228     -1102.640916239     -1102.356210461        10.503467254
       142           71.000000         0.275848792       302.451580457     -1102.635774083     -1102.356094080        10.486047644
       143           71.500000         0.257052117       281.842158324     -1102.632946463     -1102.356075802        10.484737933
       144           72.000000         0.282505137       309.749861274     -1102.631876147     -1102.356088042        10.435045782
       145           72.500000         0.285412026       312.937090135     -1102.632540281     -1102.356152565        10.474363647
       146           73.000000         0.278504406       305.363300670     -1102.634513394     -1102.356274715        10.490085021
       147           73.500000         0.279110664       306.028026237     -1102.636342969     -1102.356431654        10.500098739
       148           74.000000         0.292500076       320.708709662     -1102.634719075     -1102.356475181        10.530297931
       149           74.500000         0.296903692       325.537010211     -1102.627935583     -1102.356328849        10.470769193
       150           75.000000         0.294694717       323.115002180     -1102.618372039     -1102.356041840        12.730907388
       151           75.500000         0.285454708       312.983888442     -1102.610707746     -1102.355830728        11.632710185
       152           76.000000         0.274948938       301.464944640     -1102.605851609     -1102.355771048        10.475827750
       153           76.500000         0.269066412       295.015108935     -1102.603421611     -1102.355775819        10.497778062
       154           77.000000         0.252638696       277.003108757     -1102.602446022     -1102.355782216        10.511533234
       155           77.500000         0.252647810       277.013101395     -1102.604834151     -1102.355809262        10.504428338
       156           78.000000         0.248309625       272.256543615     -1102.609458628     -1102.355888298        10.506147571
       157           78.500000         0.263643246       289.068934214     -1102.618092984     -1102.356068239        10.498613916
       158           79.000000         0.280238876       307.265043561     -1102.626226479     -1102.356274483        10.509747520
       159           79.500000         0.291873840       320.022079840     -1102.629618419     -1102.356369292        10.416191589
       160           80.000000         0.292840236       321.081675425     -1102.629537860     -1102.356366097        13.189536951
       161           80.500000         0.275709444       302.298793632     -1102.624362509     -1102.356219823        10.523370765
       162           81.000000         0.275928971       302.539491706     -1102.618502255     -1102.356033296        10.486124184
       163           81.500000         0.280755945       307.831977662     -1102.614171334     -1102.355879773        10.482836358
       164           82.000000         0.272626752       298.918808175     -1102.615104811     -1102.355867588        10.481264509
       165           82.500000         0.267272391       293.048073140     -1102.617988395     -1102.355932335        10.491933387
       166           83.000000         0.264907763       290.455401376     -1102.625436236     -1102.356139894        10.490631390
       167           83.500000         0.275420911       301.982434379     -1102.634211182     -1102.356366479        10.488392685
       168           84.000000         0.282405050       309.640122482     -1102.638226653     -1102.356462593        10.458085101
       169           84.500000         0.274897739       301.408808364     -1102.638711398     -1102.356486486        10.338680051
       170           85.000000         0.283703054       311.063305139     -1102.637262371     -1102.356480571        13.267892279
       171           85.500000         0.261963500       287.227193876     -1102.633265789     -1102.356423526        10.430383109
       172           86.000000         0.259472849       284.496345444     -1102.629518237     -1102.356379038        11.610141672
       173           86.500000         0.267708242       293.525958216     -1102.627344047     -1102.356343868        11.684673164
       174           87.000000         0.268115341       293.972317143     -1102.623903783     -1102.356270201        10.614139788
       175           87.500000         0.254198932       278.713813395     -1102.623240174     -1102.356269032        10.579978231
       176           88.000000         0.258181565       283.080530240     -1102.622985675     -1102.356292320        10.588672657
       177           88.500000         0.259792583       284.846914478     -1102.622778382     -1102.356273750        10.584502198
       178           89.000000         0.264476004       289.982003331     -1102.624436219     -1102.356306102        11.702315737
       179           89.500000         0.278601463       305.469718507     -1102.627970408     -1102.356390687        10.544743180
       180           90.000000         0.289147778       317.033117777     -1102.632555860     -1102.356500100        15.178700294
       181           90.500000         0.294313017       322.696490848     -1102.632866272     -1102.356507931        10.529275805
       182           91.000000         0.285612919       313.157357768     -1102.632410569     -1102.356439970        10.471836053
       183           91.500000         0.294955011       323.400398734     -1102.627983284     -1102.356247809        10.478323475
       184           92.000000         0.286660397       314.305853668     -1102.623820162     -1102.356076665        10.430118479
       185           92.500000         0.271400567       297.574369420     -1102.623813010     -1102.356073205        10.486571513
       186           93.000000         0.289497032       317.416053348     -1102.625702760     -1102.356156846        10.514619026
       187           93.500000         0.284196744       311.604606921     -1102.629628818     -1102.356262886        10.502570577
       188           94.000000         0.294053970       322.412461091     -1102.634304738     -1102.356360046        10.495721631
       189           94.500000         0.293051471       321.313282028     -1102.636546602     -1102.356392267        10.491426043
       190           95.000000         0.281779962       308.954751015     -1102.635920826     -1102.356342666        13.672565497
       191           95.500000         0.270764375       296.876823997     -1102.632599542     -1102.356243037        10.490625411
       192           96.000000         0.256738944       281.498783710     -1102.629646260     -1102.356173930        10.504991800
       193           96.500000         0.264883403       290.428691982     -1102.628836784     -1102.356164966        10.480859257
       194           97.000000         0.266318455       292.002140624     -1102.633475777     -1102.356247911        10.513701472
       195           97.500000         0.278640185       305.512174891     -1102.637926609     -1102.356291810        10.485124696
       196           98.000000         0.282456238       309.696247321     -1102.642045995     -1102.356316372        10.513566501
       197           98.500000         0.279775903       306.757421137     -1102.643919928     -1102.356336400        10.448667005
       198           99.000000         0.272874532       299.190483352     -1102.644839924     -1102.356363966        10.499689654
       199           99.500000         0.268573168       294.474296585     -1102.643768437     -1102.356347692        10.495038614
       200          100.000000         0.273775586       300.178435423     -1102.641159050     -1102.356265959        14.183077145
       201          100.500000         0.265499410       291.104107159     -1102.637896514     -1102.356173781        10.494207330
       202          101.000000         0.271745325       297.952376370     -1102.638600089     -1102.356198448        10.492217477
       203          101.500000         0.284190552       311.597817145     -1102.638957693     -1102.356180573        10.481873155
       204          102.000000         0.289889960       317.846875210     -1102.640799071     -1102.356145639        10.494311061
       205          102.500000         0.297267991       325.936441971     -1102.645175893     -1102.356164192        10.497893106
       206          103.000000         0.299784115       328.695220352     -1102.651038075     -1102.356283349        11.624856815
       207          103.500000         0.293296828       321.582300524     -1102.655585724     -1102.356380959        10.513498861
       208          104.000000         0.300971909       329.997564359     -1102.656368630     -1102.356420015        10.483974736
       209          104.500000         0.293104029       321.370908146     -1102.655457076     -1102.356410951        10.488737922
       210          105.000000         0.284571131       312.015099481     -1102.651698729     -1102.356377824        13.514566477
       211          105.500000         0.284128194       311.529445846     -1102.644157621     -1102.356203032        10.490847211
       212          106.000000         0.275368689       301.925176517     -1102.639230081     -1102.356072683        10.480331928
       213          106.500000         0.273173955       299.518782917     -1102.635773453     -1102.355986967        10.470314622
       214          107.000000         0.281202961       308.322104380     -1102.634530048     -1102.355979883        10.485204056
       215          107.500000         0.276054946       302.677615894     -1102.637166910     -1102.356070090        10.481653884
       216          108.000000         0.285995083       313.576376783     -1102.641485012     -1102.356197814        10.469888244
       217          108.500000         0.294487574       322.887881645     -1102.645655168     -1102.356294283        10.488628801
       218          109.000000         0.281512642       308.661650831     -1102.648727558     -1102.356393338        10.484041136
       219          109.500000         0.279274735       306.207920744     -1102.648766432     -1102.356425670        10.492785223
       220          110.000000         0.295203424       323.672768033     -1102.646923519     -1102.356349520        14.984152429
       221          110.500000         0.287431216       315.151010377     -1102.642928586     -1102.356199022        10.396260403
       222          111.000000         0.265366288       290.958146614     -1102.637121994     -1102.356018176        10.391359545
       223          111.500000         0.265559966       291.170502479     -1102.633444991     -1102.355895426        10.467770074
       224          112.000000         0.271190006       297.343501931     -1102.635517788     -1102.355957352        10.489666592
       225          112.500000         0.286729421       314.381534469     -1102.640625660     -1102.356093974        10.566945780
       226          113.000000         0.284954913       312.435893390     -1102.643639348     -1102.356146494        10.585506581
       227          113.500000         0.299878900       328.799145750     -1102.648836225     -1102.356240046        10.589107610