#     Step Nr.          Time[fs]        Kin.[a.u.]          Temp[K]            Pot.[a.u.]        Cons Qty[a.u.]        UsedTime[s]
         0            0.000000         0.275037913       300.000000000     -1103.075021217     -1102.799983305         0.000000000
         1            0.500000         0.279053523       304.380062273     -1103.080241628     -1102.800068341        53.630439077
         2            1.000000         0.272812454       297.572561847     -1103.091275634     -1102.800312446        10.277726900
         3            1.500000         0.285217298       311.103253091     -1103.107482577     -1102.800675347        10.306067556
         4            2.000000         0.286598969       312.610323477     -1103.120239672     -1102.800883823        10.286291078
         5            2.500000         0.304630873       332.278779280     -1103.131336337     -1102.801020627        10.298569359
         6            3.000000         0.333043894       363.270530281     -1103.137315027     -1102.801041952        10.340621211
         7            3.500000         0.331062490       361.109295880     -1103.137937936     -1102.800900896        10.355829608
         8            4.000000         0.320479260       349.565545184     -1103.134693277     -1102.800682943        10.477066208
         9            4.500000         0.317117153       345.898297849     -1103.130822322     -1102.800524727         9.403676558
        10            5.000000         0.313488816       341.940657604     -1103.129027612     -1102.800447534        12.896776065
        11            5.500000         0.331724688       361.831594248     -1103.133134742     -1102.800526847         9.386379037
        12            6.000000         0.331824820       361.940813658     -1103.137537558     -1102.800635649         9.395526882
        13            6.500000         0.324580924       354.039471301     -1103.141896309     -1102.800703601         9.389479935
        14            7.000000         0.315919174       344.591592515     -1103.143795954     -1102.800728546         9.415352792
        15            7.500000         0.332018868       362.152473825     -1103.142788378     -1102.800697383         9.402144697
        16            8.000000         0.335481479       365.929346331     -1103.143284854     -1102.800722606        10.264337663
        17            8.500000         0.314069796       342.574367064     -1103.141119960     -1102.800714997         9.370416746
        18            9.000000         0.299931184       327.152553204     -1103.138973056     -1102.800707619         9.410273824
        19            9.500000         0.296470938       323.378259207     -1103.134550000     -1102.800611128         9.403261319
        20           10.000000         0.295013312       321.788341309     -1103.132322803     -1102.800540342        12.301323805
        21           10.500000         0.303012794       330.513846238     -1103.132181918     -1102.800475363        10.306102917
        22           11.000000         0.301647351       329.024476968     -1103.132829717     -1102.800446938         9.377483055
        23           11.500000         0.305659890       333.401188296     -1103.135463464     -1102.800500897         9.348907985
        24           12.000000         0.298987884       326.123640238     -1103.138522584     -1102.800540048         9.369702816
        25           12.500000         0.285399678       311.302185648     -1103.139864176     -1102.800544771         9.390383616
        26           13.000000         0.277601451       302.796202272     -1103.139675076     -1102.800561204         9.371142596
        27           13.500000         0.291590135       318.054480495     -1103.139502045     -1102.800604661         9.394423265
        28           14.000000         0.276096951       301.155155098     -1103.140297299     -1102.800662950         9.347414296
        29           14.500000         0.279550837       304.922511175     -1103.142596855     -1102.800692158         9.362304796
        30           15.000000         0.294563585       321.297796995     -1103.142840774     -1102.800626612        13.032394320
        31           15.500000         0.304631720       332.279703713     -1103.142211313     -1102.800507400         9.343416117
        32           16.000000         0.303090533       330.598640108     -1103.143167915     -1102.800518474         9.344050728
        33           16.500000         0.285304646       311.198529189     -1103.144429244     -1102.800595057         9.357274074
        34           17.000000         0.297654914       324.669691364     -1103.148216259     -1102.800737113         9.344394140
        35           17.500000         0.293314791       319.935664074     -1103.150026848     -1102.800799194         9.355926216
        36           18.000000         0.293612371       320.260252726     -1103.152237090     -1102.800856688         9.356645845
        37           18.500000         0.309008641       337.053868404     -1103.151433432     -1102.800828198         9.297697924
        38           19.000000         0.281223918       306.747439728     -1103.147065453     -1102.800717924         9.333853833
        39           19.500000         0.285035952       310.905448316     -1103.145049998     -1102.800619031         9.372587480
        40           20.000000         0.281499128       307.047626962     -1103.149358230     -1102.800703784        13.224048968
        41           20.500000         0.305091835       332.781577511     -1103.156865151     -1102.800869207         9.307890378
        42           21.000000         0.309999425       338.134574338     -1103.163354387     -1102.801046899         9.328387160
        43           21.500000         0.303475561       331.018613122     -1103.166498233     -1102.801113819         9.337174699
        44           22.000000         0.287510621       313.604715412     -1103.167876491     -1102.801103371         9.350112490
        45           22.500000         0.291610453       318.076642454     -1103.167054498     -1102.801035091         9.329174150
        46           23.000000         0.284133912       309.921540881     -1103.167634684     -1102.801029302         9.333567135
        47           23.500000         0.281560400       307.114460006     -1103.171109264     -1102.801079283         9.287979204
        48           24.000000         0.295555289       322.379506642     -1103.175112093     -1102.801132798         9.355655350
        49           24.500000         0.297564904       324.571512668     -1103.179465945     -1102.801163906         9.313354295
        50           25.000000         0.297388014       324.378567634     -1103.182486508     -1102.801197053        12.458194621
        51           25.500000         0.290070433       316.396852392     -1103.184106398     -1102.801192690         9.289468657
        52           26.000000         0.281285945       306.815095822     -1103.187663304     -1102.801266777         9.322747279
        53           26.500000         0.293061295       319.659161414     -1103.188991355     -1102.801306666         9.297344480
        54           27.000000         0.295520323       322.341367284     -1103.190103624     -1102.801302856         9.338143013
        55           27.500000         0.285264460       311.154695433     -1103.190461095     -1102.801241975         9.309710026
        56           28.000000         0.261289914       285.004250384     -1103.191756178     -1102.801204752         9.312000196
        57           28.500000         0.279293905       304.642261205     -1103.193005291     -1102.801229796         9.333424564
        58           29.000000         0.277787106       302.998706523     -1103.190300134     -1102.801164357         9.365828279
        59           29.500000         0.283295702       309.007256259     -1103.187790247     -1102.801100053         9.309853453
        60           30.000000         0.278320417       303.580420813     -1103.186612741     -1102.801052736        12.444580756
        61           30.500000         0.288115519       314.264513215     -1103.189592049     -1102.801113787         9.328015815
        62           31.000000         0.299152463       326.303155931     -1103.190727664     -1102.801111090         9.308060650
        63           31.500000         0.306611515       334.439182403     -1103.190684033     -1102.801096380         9.323935434
        64           32.000000         0.309706385       337.814938538     -1103.189670208     -1102.801065543         9.326041996
        65           32.500000         0.309916566       338.044195270     -1103.187188993     -1102.801033619         9.363747116
        66           33.000000         0.311254767       339.503849666     -1103.181639638     -1102.800888790         9.304478254
        67           33.500000         0.318040763       346.905733934     -1103.179954061     -1102.800807468         9.289666120
        68           34.000000         0.325506402       355.048945153     -1103.181768170     -1102.800862758         8.413866200
        69           34.500000         0.333231898       363.475597134     -1103.185427351     -1102.800931022         8.458399437
        70           35.000000         0.342868465       373.986766410     -1103.187742875     -1102.800927283        12.287801493
        71           35.500000         0.335128361       365.544180759     -1103.188571756     -1102.800903452         9.326910835
        72           36.000000         0.331072623       361.120348377     -1103.191176484     -1102.800938897         9.314945430
        73           36.500000         0.328186205       357.971963070     -1103.191549522     -1102.800941453         9.359193962
        74           37.000000         0.304698583       332.352634707     -1103.191402279     -1102.800949580         9.315164566
        75           37.500000         0.317750768       346.589419170     -1103.192633753     -1102.800992481         9.318964932
        76           38.000000         0.309163205       337.222460269     -1103.191631902     -1102.800936790         9.328670196
        77           38.500000         0.290971472       317.379669248     -1103.190114658     -1102.800833231         9.363599092
        78           39.000000         0.296091261       322.964123462     -1103.189545766     -1102.800761753         9.327713184
        79           39.500000         0.296158235       323.037175241     -1103.190062139     -1102.800731053         9.305748180
        80           40.000000         0.287223332       313.291352076     -1103.191278159     -1102.800731075        12.085485075
        81           40.500000         0.307066040       334.934959314     -1103.194344549     -1102.800811774         8.431274172
        82           41.000000         0.296772529       323.707221933     -1103.197522693     -1102.800892543         9.329293747
        83           41.500000         0.302601448       330.065166577     -1103.200530903     -1102.800991564         8.405259565
        84           42.000000         0.305946356       333.713653779     -1103.203142809     -1102.801096877         8.403910309
        85           42.500000         0.301739764       329.125277148     -1103.200493213     -1102.801084137         8.419843439
        86           43.000000         0.296134348       323.011120325     -1103.199252084     -1102.801050661         9.351085663
        87           43.500000         0.290020032       316.341877443     -1103.199213693     -1102.801062779         8.406681303
        88           44.000000         0.299053102       326.194777585     -1103.198829799     -1102.801080379         8.432897735
        89           44.500000         0.301663046       329.041596854     -1103.197016567     -1102.801086521         9.328393452
        90           45.000000         0.300322128       327.578977954     -1103.193687566     -1102.801047904        12.625420343
        91           45.500000         0.301922504       329.324602191     -1103.191039121     -1102.800987499         9.307873257
        92           46.000000         0.300128864       327.368173658     -1103.186762551     -1102.800872850         9.325166136
        93           46.500000         0.274819236       299.761476148     -1103.182540027     -1102.800746972         8.423427004
        94           47.000000         0.265743062       289.861560446     -1103.180823485     -1102.800681411         9.271296352
        95           47.500000         0.285517403       311.430594990     -1103.185974137     -1102.800785407         9.250092339
        96           48.000000         0.287570340       313.669853961     -1103.192174618     -1102.800906145         9.330056150
        97           48.500000         0.296848991       323.790624055     -1103.197563082     -1102.800991813         9.620378334
        98           49.000000         0.291406327       317.853990857     -1103.199838524     -1102.801024213         8.816747259
        99           49.500000         0.296551047       323.465638986     -1103.197073918     -1102.800930440         8.805310801
       100           50.000000         0.262837500       286.692293429     -1103.193447467     -1102.800826681        13.969662167
       101           50.500000         0.272543685       297.279399555     -1103.191919252     -1102.800728009         8.662617952
       102           51.000000         0.284748626       310.592044810     -1103.191886392     -1102.800681317         8.601363342
       103           51.500000         0.282279758       307.899105634     -1103.190496601     -1102.800621158         9.531639971
       104           52.000000         0.274848079       299.792937251     -1103.191356151     -1102.800659048         8.558236077
       105           52.500000         0.280885457       306.378259888     -1103.194474843     -1102.800768680         9.461574521
       106           53.000000         0.283345106       309.061143113     -1103.199025464     -1102.800903039         9.472804643
       107           53.500000         0.291781600       318.263322453     -1103.202886726     -1102.801007106         8.543052692
       108           54.000000         0.289047877       315.281490554     -1103.205933564     -1102.801097029         8.543743331
       109           54.500000         0.297229839       324.206037219     -1103.207526849     -1102.801111273         9.394341089
       110           55.000000         0.290410139       316.767389561     -1103.204793361     -1102.801017214        12.169788424
       111           55.500000         0.292798094       319.372072416     -1103.200904527     -1102.800920664         8.500789739
       112           56.000000         0.305939231       333.705882698     -1103.197574771     -1102.800850871         8.511571925
       113           56.500000         0.286464454       312.463599568     -1103.194611475     -1102.800806433         8.468602236
       114           57.000000         0.282418292       308.050213046     -1103.194103419     -1102.800820397         9.369715497
       115           57.500000         0.297350710       324.337878679     -1103.194475939     -1102.800828636         8.469610207
       116           58.000000         0.296579720       323.496914025     -1103.194217242     -1102.800819286         8.443107054
       117           58.500000         0.274808944       299.750250562     -1103.197011282     -1102.800892831         8.446419463
       118           59.000000         0.287622733       313.727002734     -1103.199860486     -1102.800957872         8.461940490
       119           59.500000         0.300038326       327.269418476     -1103.199503436     -1102.800981715         8.453606471
       120           60.000000         0.294791087       321.545947065     -1103.197332164     -1102.800909024        11.976421736
       121           60.500000         0.275436826       300.435118404     -1103.196078635     -1102.800851119         8.432388626
       122           61.000000         0.283878823       309.643299883     -1103.197168266     -1102.800872620         8.448664874
       123           61.500000         0.283924979       309.693645025     -1103.200217030     -1102.800963564         8.474594314
       124           62.000000         0.293294489       319.913519694     -1103.200907898     -1102.800995186         8.445233986
       125           62.500000         0.293957547       320.636755703     -1103.201422704     -1102.800982487         8.470586170
       126           63.000000         0.298201002       325.265341700     -1103.201167925     -1102.800875870         8.469924551
       127           63.500000         0.313749515       342.225017374     -1103.203470639     -1102.800845621         8.457216300
       128           64.000000         0.308015674       335.970780722     -1103.202961317     -1102.800838223         8.447142687
       129           64.500000         0.307467704       335.373078157     -1103.203493666     -1102.800857236         8.425308540
       130           65.000000         0.317633340       346.461333211     -1103.204545369     -1102.800915814        11.312872399
       131           65.500000         0.299641693       326.836787991     -1103.203802038     -1102.800922590         8.411556698
       132           66.000000         0.293709656       320.366367381     -1103.201690279     -1102.800912866         8.416629616
       133           66.500000         0.301172325       328.506338326     -1103.195134414     -1102.800788564         8.427418407
       134           67.000000         0.293871306       320.542687922     -1103.189269744     -1102.800661149         8.424352191
       135           67.500000         0.294013529       320.697819078     -1103.184393667     -1102.800533764         8.447919596
       136           68.000000         0.294811606       321.568328468     -1103.181436254     -1102.800462321         8.398468114
       137           68.500000         0.295523015       322.344303813     -1103.180999347     -1102.800448915         8.408793740
       138           69.000000         0.280225150       305.658024571     -1103.182483625     -1102.800512698         8.385268979
       139           69.500000         0.279275785       304.622495989     -1103.186907525     -1102.800648214         9.321532983
       140           70.000000         0.300019563       327.248953068     -1103.193262184     -1102.800857095        12.152142655
       141           70.500000         0.296896573       323.842524445     -1103.196351652     -1102.801003714         8.426250361
       142           71.000000         0.306658164       334.490064500     -1103.193940237     -1102.801035882         9.330779701
       143           71.500000         0.284451139       310.267558274     -1103.186955036     -1102.800935440         8.391380429
       144           72.000000         0.290820175       317.214640354     -1103.180346667     -1102.800748514         8.438955598
       145           72.500000         0.287291743       313.365972409     -1103.172384321     -1102.800488565         8.430405606
       146           73.000000         0.268957372       293.367596983     -1103.169665617     -1102.800415081         9.321302749
       147           73.500000         0.273372651       298.183601866     -1103.171513246     -1102.800535448         8.403923888
       148           74.000000         0.274241266       299.131050382     -1103.175702649     -1102.800697419         8.433218006
       149           74.500000         0.281662242       307.225545247     -1103.180260035     -1102.800849841         8.384593230
       150           75.000000         0.286431112       312.427231463     -1103.185487601     -1102.800997512        11.757002540
       151           75.500000         0.299035700       326.175795962     -1103.189131457     -1102.801058560         8.391672820
       152           76.000000         0.288224921       314.383844031     -1103.189383625     -1102.800968482         9.297591392
       153           76.500000         0.276368028       301.450835204     -1103.187320256     -1102.800803995         8.382021759
       154           77.000000         0.267182938       291.432118406     -1103.184818182     -1102.800667359         8.369121902
       155           77.500000         0.261717859       285.471035905     -1103.187495245     -1102.800694264         8.392850142
       156           78.000000         0.266897564       291.120843697     -1103.191681477     -1102.800754996         8.391773608
       157           78.500000         0.270877560       295.462059715     -1103.199703207     -1102.800878324         9.267919809
       158           79.000000         0.295294155       322.094672991     -1103.207509442     -1102.801018752         9.294488657
       159           79.500000         0.299624997       326.818576076     -1103.211101754     -1102.801048281         9.332882192
       160           80.000000         0.303081358       330.588632401     -1103.209570314     -1102.801017226        13.171589132
       161           80.500000         0.287661831       313.769649145     -1103.205246308     -1102.800925254         9.277260143
       162           81.000000         0.273339912       298.147891230     -1103.198315271     -1102.800778805         9.275406469
       163           81.500000         0.285524995       311.438876786     -1103.193076588     -1102.800665777         8.374003537
       164           82.000000         0.284962103       310.824897228     -1103.189636050     -1102.800589350         9.294118520
       165           82.500000         0.291467478       317.920691792     -1103.187211060     -1102.800564399         9.301881917
       166           83.000000         0.289416274       315.683322784     -1103.189428997     -1102.800636876         9.306564786
       167           83.500000         0.284313091       310.116981295     -1103.190810775     -1102.800665305         9.265461445
       168           84.000000         0.293833175       320.501096284     -1103.192846425     -1102.800734004         9.264857613
       169           84.500000         0.282895165       308.570366153     -1103.193455285     -1102.800765454         9.279231392
       170           85.000000         0.291842862       318.330144702     -1103.192615921     -1102.800740744        13.033599105
       171           85.500000         0.267938390       292.256133861     -1103.190083807     -1102.800651619         9.256324392
       172           86.000000         0.263382617       287.286884581     -1103.190281781     -1102.800607381         9.262064155
       173           86.500000         0.276185547       301.251791862     -1103.193729623     -1102.800656895         8.346761253
       174           87.000000         0.283437573       309.162003119     -1103.198058147     -1102.800703560         9.282078110
       175           87.500000         0.269898769       294.394434467     -1103.203110521     -1102.800775861         9.260211315
       176           88.000000         0.274751331       299.687409082     -1103.208104397     -1102.800829686         9.253813032
       177           88.500000         0.289235498       315.486140434     -1103.213746680     -1102.800894655         8.348082211
       178           89.000000         0.295524200       322.345596276     -1103.216807445     -1102.800870359         8.366555054
       179           89.500000         0.306057560       333.834950522     -1103.219641292     -1102.800841239         8.394659769
       180           90.000000         0.305148684       332.843586202     -1103.221536684     -1102.800817010        12.773166511
       181           90.500000         0.324732140       354.204411862     -1103.224637365     -1102.800903271         9.241425768
       182           91.000000         0.308904520       336.940297308     -1103.228944986     -1102.801028147         9.260077909
       183           91.500000         0.314314449       342.841224358     -1103.229589392     -1102.801040877         9.305584349
       184           92.000000         0.297979465       325.023698698     -1103.228744470     -1102.801016189         9.266578250
       185           92.500000         0.285866608       311.811494276     -1103.226946415     -1102.801006048         9.242973451
       186           93.000000         0.288021062       314.161483881     -1103.223820628     -1102.800961129         9.262364779
       187           93.500000         0.277226009       302.386685368     -1103.219411011     -1102.800892753         9.248630889
       188           94.000000         0.282092231       307.694559516     -1103.215528017     -1102.800806720         9.240454409
       189           94.500000         0.273149630       297.940339765     -1103.213310856     -1102.800801352         9.268755704
       190           95.000000         0.263961311       287.918100354     -1103.210375358     -1102.800775216        13.422452506
       191           95.500000         0.270711694       295.281139726     -1103.210206955     -1102.800810357         8.354120240
       192           96.000000         0.253975512       277.026003437     -1103.213027612     -1102.800888351         8.358862404
       193           96.500000         0.280071435       305.490358508     -1103.211297401     -1102.800820923         8.389968470
       194           97.000000         0.279538630       304.909196687     -1103.210249780     -1102.800789738         9.269851755
       195           97.500000         0.276865363       301.993307316     -1103.208583695     -1102.800744041         8.362457655
       196           98.000000         0.272104855       296.800741838     -1103.205948551     -1102.800704645         8.357719447
       197           98.500000         0.271633399       296.286497472     -1103.206056366     -1102.800741352         9.259647615
       198           99.000000         0.261282109       284.995736884     -1103.206462101     -1102.800742715         8.374590710
       199           99.500000         0.260692335       284.352436251     -1103.205655177     -1102.800690274         9.249539018
       200          100.000000         0.265602033       289.707732118     -1103.203731636     -1102.800614006        12.364259377
       201          100.500000         0.261351197       285.071096015     -1103.201569545     -1102.800552595         9.519755773
       202          101.000000         0.266238298       290.401743723     -1103.203052762     -1102.800602001         9.671306849
       203          101.500000         0.278194281       303.442835909     -1103.203540701     -1102.800600446         9.692347851
       204          102.000000         0.284255627       310.054301875     -1103.206428071     -1102.800620521         9.690158695
       205          102.500000         0.283701965       309.450390574     -1103.209346727     -1102.800637412         9.609986655
       206          103.000000         0.293091394       319.691992210     -1103.213386691     -1102.800710551         9.590263035
       207          103.500000         0.282045464       307.643548192     -1103.217492539     -1102.800821060         9.502576083
       208          104.000000         0.291041155       317.455675913     -1103.219014102     -1102.800901910         9.423783366
       209          104.500000         0.292484286       319.029783903     -1103.219058857     -1102.800917368         9.387318473
       210          105.000000         0.286705731       312.726774136     -1103.216620879     -1102.800867541        12.725100201
       211          105.500000         0.267524921       291.805139225     -1103.212799651     -1102.800722569         8.450923126
       212          106.000000         0.255975589       279.207604910     -1103.210611839     -1102.800583020         8.442668494
       213          106.500000         0.268282420       292.631387212     -1103.212700799     -1102.800572103         8.444737900
       214          107.000000         0.288416651       314.592975678     -1103.217293714     -1102.800670796         8.413596049
       215          107.500000         0.294463098       321.188190437     -1103.224066147     -1102.800862760         8.453210823
       216          108.000000         0.298829040       325.950380124     -1103.231088277     -1102.801050104         8.432685126
       217          108.500000         0.308314603       336.296839684     -1103.234944732     -1102.801099790         8.451065522
       218          109.000000         0.285944055       311.895969556     -1103.233016550     -1102.800993596         8.433340136
       219          109.500000         0.274377419       299.279560896     -1103.229823971     -1102.800882590         8.442049500
       220          110.000000         0.281862998       307.444520882     -1103.229296678     -1102.800830112        17.154628478
       221          110.500000         0.282958688       308.639654483     -1103.232295398     -1102.800851446        14.070215672
       222          111.000000         0.280678674       306.152709604     -1103.236374026     -1102.800869678        14.278462153
       223          111.500000         0.282131595       307.737495527     -1103.240650467     -1102.800903410        14.680905603
       224          112.000000         0.275001765       299.960571206     -1103.243554262     -1102.800973498        13.470037777
       225          112.500000         0.277221005       302.381226583     -1103.248800215     -1102.801105778        15.848835684
       226          113.000000         0.290026751       316.349206370     -1103.251141310     -1102.801132849        13.005616412
       227          113.500000         0.293113848       319.716484443     -1103.252080321     -1102.801077172        14.837408923