ITEM: TIMESTEP
0
ITEM: NUMBER OF ATOMS
360
ITEM: BOX BOUNDS pp pp pp
0.0000000000000000e+00 6.6943295008216896e+00
0.0000000000000000e+00 6.6943295008216896e+00
0.0000000000000000e+00 6.6943295008216896e+00
ITEM: ATOMS id type xs ys zs
188 1 0.0515162 0.216624 0.077535
289 2 0.148936 0.207574 0.198646
291 2 0.0662064 0.0067382 0.0242846
93 1 0.0380942 0.122769 0.214838
112 1 0.126016 0.0618607 0.112819
32 1 0.251157 0.107241 0.211002
273 1 0.258205 0.21267 0.111846
169 1 0.267268 0.072485 0.0266868
250 1 0.38564 0.11609 0.12506
275 1 0.377594 0.225711 0.241895
324 2 0.46331 0.0273735 0.0603379
293 2 0.49314 0.20173 0.161857
21 1 0.117105 0.35877 0.0604038
311 2 0.0702748 0.396255 0.166294
33 1 0.0163353 0.471715 0.0776998
28 1 0.0432399 0.276794 0.208707
222 1 0.153063 0.499196 0.133161
162 1 0.40712 0.280256 0.0802634
297 2 0.422829 0.344468 0.223237
63 1 0.273337 0.335648 0.182777
212 1 0.447473 0.429036 0.127434
263 1 0.304697 0.488321 0.120528
276 1 0.285575 0.356713 0.010476
350 2 0.0168011 0.215983 0.439084
313 2 0.171784 0.141441 0.308278
86 1 0.0685011 0.108926 0.391054
72 1 0.239975 0.243471 0.296584
304 2 0.187739 0.0196763 0.374448
218 1 0.0955097 0.244208 0.342585
178 1 0.110023 0.0210556 0.274061
156 1 0.153511 0.0347413 0.490828
266 1 0.300739 0.124017 0.358099
190 1 0.451916 0.100093 0.320176
200 1 0.394524 0.101493 0.473854
118 1 0.131656 0.479131 0.355174
294 2 0.0658887 0.359313 0.339175
132 1 0.161036 0.382024 0.256548
271 1 0.210752 0.274745 0.447948
95 1 0.0738891 0.330464 0.469049
168 1 0.16072 0.470356 0.495018
251 1 0.00538166 0.472577 0.254617
277 1 0.359817 0.43076 0.275811
31 1 0.495364 0.476339 0.297132
287 1 0.255834 0.396533 0.357285
224 1 0.38412 0.460107 0.424959
243 1 0.35587 0.257398 0.388309
355 2 0.0196181 0.0190153 0.507944
215 1 0.124632 0.17638 0.503436
238 1 0.0462697 0.0670451 0.700132
153 1 0.19037 0.18098 0.642384
38 1 0.202919 0.0637587 0.7293
317 2 0.192922 0.0366973 0.603689
216 1 0.0591403 0.216686 0.717316
154 1 0.342292 0.184546 0.674603
50 1 0.37935 0.240259 0.536907
286 1 0.468758 0.0929915 0.65171
39 1 0.330682 0.0408432 0.61853
16 1 0.266284 0.134661 0.527521
197 1 0.166266 0.3164 0.589728
69 1 0.102878 0.444067 0.63123
122 1 0.23734 0.447763 0.664888
349 2 0.0108783 0.298567 0.588779
173 1 0.185692 0.31992 0.74802
296 2 0.0341572 0.448208 0.527552
359 2 0.279451 0.294981 0.626802
138 1 0.338175 0.318877 0.727897
248 1 0.40153 0.421493 0.625519
15 1 0.482707 0.269545 0.646101
191 1 0.298429 0.371028 0.518145
100 1 0.475231 0.383411 0.505382
40 1 0.15404 0.18522 0.844525
331 2 0.0649188 0.0882587 0.818915
249 1 0.172627 0.230755 0.982485
177 1 0.0727388 0.129205 0.960243
152 1 0.175411 0.0456553 0.891354
295 2 0.244274 0.21741 0.770819
24 1 0.446 0.232 0.806751
145 1 0.490684 0.138056 0.914109
55 1 0.397266 0.023369 0.942079
114 1 0.310552 0.134956 0.856942
328 2 0.423185 0.124148 0.776663
254 1 0.34677 0.190187 0.982203
116 1 0.078798 0.487761 0.939091
23 1 0.209842 0.491148 0.997047
14 1 0.0288152 0.257112 0.866536
184 1 0.112101 0.462674 0.780073
225 1 0.159694 0.370906 0.90055
111 1 0.24959 0.472796 0.825219
279 1 0.428841 0.346643 0.878535
84 1 0.367263 0.467435 0.965851
257 1 0.38812 0.482566 0.765191
247 1 0.279382 0.27997 0.875742
137 1 0.184629 0.625068 0.0929872
298 2 0.201168 0.647869 0.211273
258 1 0.0463388 0.589718 0.184331
209 1 0.0472323 0.620006 0.0216379
110 1 0.321776 0.650111 0.171316
228 1 0.450649 0.599484 0.0888358
207 1 0.414936 0.747215 0.0592448
130 1 0.315909 0.612807 0.00500304
307 2 0.409858 0.528608 0.195411
131 1 0.474072 0.732529 0.202193
315 2 0.483022 0.50454 0.01981
245 1 0.109407 0.769804 0.170623
261 1 0.0474029 0.896204 0.101852
20 1 0.126641 0.772369 0.0327386
8 1 0.197691 0.887384 0.164822
85 1 0.176166 0.936111 0.0369025
232 1 0.45343 0.903136 0.0376209
244 1 0.268646 0.751881 0.0677149
22 1 0.330721 0.837562 0.222323
37 1 0.330885 0.956132 0.115979
327 2 0.457021 0.872336 0.173628
125 1 0.462602 0.990975 0.205517
233 1 0.175372 0.709103 0.443823
83 1 0.148378 0.638335 0.322129
292 2 0.119557 0.59109 0.450556
48 1 0.236659 0.543249 0.254235
160 1 0.00622028 0.655083 0.397929
166 1 0.389394 0.6925 0.479746
343 2 0.351664 0.694121 0.364726
128 1 0.261783 0.730344 0.284506
9 1 0.384071 0.589076 0.314328
170 1 0.27677 0.57235 0.418411
120 1 0.475202 0.711352 0.349703
333 2 0.47061 0.55096 0.403888
135 1 0.0540175 0.798933 0.453832
227 1 0.0651446 0.942148 0.399741
226 1 0.133009 0.773176 0.325584
4 1 0.0646427 0.894352 0.257031
322 2 0.159056 0.859233 0.429446
171 1 0.199383 0.910806 0.326286
104 1 0.330288 0.978428 0.287284
157 1 0.468835 0.943613 0.411147
19 1 0.3585 0.839971 0.382873
1 1 0.305367 0.971865 0.45163
221 1 0.253343 0.810247 0.496674
42 1 0.0137933 0.665208 0.68439
290 2 0.0613731 0.68328 0.537904
189 1 0.204624 0.599112 0.55004
274 1 0.15251 0.724811 0.606228
82 1 0.0214785 0.567807 0.555475
284 1 0.13225 0.580829 0.684539
208 1 0.312398 0.749927 0.630183
280 1 0.453742 0.538802 0.540086
174 1 0.294363 0.595969 0.697748
309 2 0.341989 0.635471 0.57927
71 1 0.439235 0.663629 0.649678
281 1 0.316278 0.516646 0.5686
358 2 0.467015 0.541956 0.678984
180 1 0.00695196 0.934408 0.62011
235 1 0.128045 0.878676 0.572791
75 1 0.142969 0.851351 0.713876
305 2 0.122953 0.978148 0.676161
183 1 0.464959 0.977666 0.567544
285 1 0.269143 0.908223 0.62641
54 1 0.413183 0.860296 0.51192
62 1 0.404904 0.763644 0.748925
99 1 0.41184 0.907786 0.684707
353 2 0.474303 0.751026 0.552939
141 1 0.0489739 0.608699 0.856571
223 1 0.176974 0.693725 0.7711
345 2 0.163806 0.55095 0.845704
278 1 0.196525 0.669226 0.924858
342 2 0.081185 0.704012 0.933726
319 2 0.302413 0.700259 0.766351
267 1 0.470301 0.657351 0.936854
25 1 0.498031 0.521676 0.90555
113 1 0.312074 0.601754 0.852029
107 1 0.34211 0.74485 0.906063
165 1 0.449358 0.629339 0.794362
360 2 0.163435 0.948842 0.827014
220 1 0.0338312 0.927223 0.768141
241 1 0.16248 0.828626 0.869932
252 1 0.0388267 0.854889 0.957504
2 1 0.00719088 0.776872 0.816633
155 1 0.0121553 0.995536 0.914039
357 2 0.48208 0.791607 0.977109
240 1 0.407385 0.883376 0.876466
142 1 0.308152 0.871643 0.972581
92 1 0.305809 0.988345 0.819634
66 1 0.490755 0.991173 0.828667
94 1 0.281441 0.836914 0.767245
46 1 0.718709 0.0842669 0.175981
326 2 0.664546 0.0944036 0.041005
45 1 0.723733 0.000919123 0.00585996
79 1 0.6586 0.231959 0.217952
41 1 0.568083 0.122394 0.220196
164 1 0.646254 0.218026 0.041174
36 1 0.510678 0.144489 0.058824
150 1 0.800118 0.136202 0.0628613
12 1 0.910446 0.149934 0.146065
159 1 0.944676 0.0114573 0.103138
351 2 0.956553 0.104246 0.00199018
59 1 0.626384 0.457927 0.117429
321 2 0.516099 0.264959 0.00734455
11 1 0.549002 0.325596 0.137992
64 1 0.753459 0.360132 0.123139
117 1 0.823344 0.255756 0.218847
181 1 0.914024 0.35288 0.124062
30 1 0.87055 0.496246 0.1715
143 1 0.50679 0.221705 0.449352
330 2 0.6526 0.0422741 0.440225
198 1 0.687702 0.0923468 0.326925
246 1 0.534173 0.0829178 0.455486
192 1 0.641993 0.239273 0.369878
172 1 0.925782 0.123949 0.440745
26 1 0.817577 0.217065 0.374833
306 2 0.98858 0.0582297 0.311175
167 1 0.845436 0.111011 0.277015
76 1 0.784803 0.0931636 0.446185
239 1 0.947794 0.205112 0.308226
186 1 0.50886 0.252745 0.286335
97 1 0.62496 0.391774 0.290098
90 1 0.573545 0.492736 0.46469
338 2 0.724825 0.30685 0.30687
341 2 0.50005 0.34827 0.371156
302 2 0.719573 0.443585 0.374625
264 1 0.635029 0.373386 0.44126
87 1 0.936726 0.372 0.433353
140 1 0.780338 0.425413 0.252724
175 1 0.796076 0.356583 0.421825
51 1 0.922102 0.364021 0.281098
182 1 0.732191 0.0223195 0.718661
133 1 0.650577 0.16211 0.625125
329 2 0.524441 0.161075 0.560122
217 1 0.688224 0.0450532 0.558301
255 1 0.716815 0.223459 0.517898
49 1 0.799848 0.139913 0.600579
161 1 0.982518 0.139434 0.571095
35 1 0.920647 0.241387 0.655104
56 1 0.890426 0.102783 0.707798
106 1 0.851538 0.00469434 0.591098
144 1 0.60383 0.269312 0.74885
124 1 0.592758 0.29974 0.561812
335 2 0.703509 0.257725 0.659877
136 1 0.555985 0.451366 0.626177
147 1 0.65424 0.412326 0.717419
211 1 0.500676 0.377693 0.745322
47 1 0.779124 0.331658 0.712254
242 1 0.925112 0.396215 0.587839
265 1 0.869832 0.262759 0.506442
352 2 0.840687 0.493785 0.589665
58 1 0.774733 0.388886 0.563839
53 1 0.993571 0.353658 0.717237
121 1 0.845529 0.47681 0.723279
81 1 0.569093 0.127815 0.772312
73 1 0.651752 0.134761 0.918716
356 2 0.699354 0.0957492 0.803046
194 1 0.565011 0.015477 0.979344
60 1 0.7852 0.187962 0.754942
334 2 0.95709 0.0332615 0.782119
204 1 0.871523 0.0286717 0.984884
91 1 0.817939 0.151197 0.91011
102 1 0.947789 0.124325 0.865552
34 1 0.824157 0.026956 0.837853
339 2 0.761374 0.245523 0.9882
6 1 0.915281 0.221994 0.995407
348 2 0.560441 0.417967 0.873217
214 1 0.72753 0.279365 0.859941
139 1 0.68325 0.379868 0.979938
337 2 0.683981 0.406823 0.838137
213 1 0.583084 0.266946 0.899581
203 1 0.533629 0.390412 0.99411
13 1 0.836336 0.357392 0.989617
17 1 0.803148 0.430911 0.851094
78 1 0.958516 0.45632 0.852471
259 1 0.884563 0.300935 0.854891
340 2 0.784501 0.482466 0.964984
179 1 0.997809 0.360593 0.979951
108 1 0.708015 0.552708 0.202394
5 1 0.585073 0.581336 0.0241464
176 1 0.648094 0.684684 0.141749
354 2 0.52982 0.684009 0.0714737
129 1 0.548781 0.583182 0.201913
187 1 0.769542 0.563464 0.0792167
127 1 0.771712 0.714825 0.00930591
195 1 0.985502 0.724246 0.113824
126 1 0.858019 0.640441 0.198131
310 2 0.770786 0.716771 0.135737
308 2 0.944687 0.613227 0.114688
77 1 0.54793 0.817561 0.105959
67 1 0.709617 0.846958 0.0863726
301 2 0.636153 0.912125 0.0199528
229 1 0.580226 0.96637 0.120414
185 1 0.67222 0.909455 0.221976
123 1 0.91703 0.854023 0.170112
193 1 0.904302 0.815337 0.0296604
101 1 0.768042 0.796075 0.236377
260 1 0.802414 0.972201 0.139706
237 1 0.548912 0.660537 0.489186
347 2 0.61783 0.511702 0.282923
74 1 0.573693 0.600227 0.353903
61 1 0.736073 0.568796 0.351717
52 1 0.688023 0.719439 0.414036
312 2 0.916773 0.58324 0.471467
316 2 0.756168 0.667226 0.258545
283 1 0.861056 0.659607 0.362948
270 1 0.99177 0.711329 0.259142
325 2 0.945049 0.572965 0.281482
151 1 0.830527 0.501228 0.449793
303 2 0.842382 0.504686 0.329679
29 1 0.996118 0.51882 0.384102
10 1 0.742431 0.943501 0.475513
18 1 0.580288 0.988834 0.317771
89 1 0.660344 0.864624 0.37598
57 1 0.631555 0.761911 0.267553
210 1 0.537465 0.807295 0.445194
256 1 0.506362 0.848 0.287217
134 1 0.955899 0.829971 0.353012
202 1 0.916867 0.96609 0.261019
44 1 0.784666 0.936421 0.313266
234 1 0.893392 0.982321 0.409256
163 1 0.818441 0.797922 0.416899
323 2 0.865283 0.762567 0.290002
299 2 0.981843 0.882737 0.468787
7 1 0.601458 0.600748 0.638806
148 1 0.574466 0.714819 0.71723
318 2 0.746789 0.61532 0.661762
109 1 0.657193 0.727179 0.577377
236 1 0.717176 0.512045 0.611244
336 2 0.654333 0.584849 0.512212
105 1 0.834104 0.745981 0.622315
96 1 0.877962 0.602498 0.621929
230 1 0.767428 0.636233 0.510615
27 1 0.930998 0.708566 0.507649
88 1 0.996803 0.512667 0.68317
98 1 0.722059 0.776919 0.70662
115 1 0.702306 0.906561 0.618555
80 1 0.547979 0.83895 0.619492
253 1 0.581688 0.996042 0.694686
320 2 0.671747 0.824625 0.507367
68 1 0.603587 0.936074 0.512897
119 1 0.882043 0.941515 0.736011
196 1 0.879187 0.864311 0.544235
332 2 0.816419 0.866953 0.654383
300 2 0.957363 0.846755 0.734449
272 1 0.983102 0.793144 0.618631
103 1 0.648887 0.513155 0.903768
201 1 0.586741 0.62707 0.842113
206 1 0.700663 0.560078 0.769943
344 2 0.699544 0.644109 0.895961
262 1 0.547258 0.507725 0.761043
43 1 0.91746 0.50952 0.987215
346 2 0.922208 0.702854 0.756967
314 2 0.801563 0.746565 0.889292
3 1 0.922597 0.714299 0.911727
149 1 0.794842 0.663473 0.79025
65 1 0.818291 0.594459 0.911887
199 1 0.916199 0.59428 0.797139
70 1 0.613578 0.752982 0.990945
158 1 0.739646 0.897275 0.803518
231 1 0.666273 0.753437 0.843853
146 1 0.574903 0.868725 0.769518
205 1 0.563131 0.888348 0.921562
288 1 0.513581 0.770482 0.862581
269 1 0.637313 0.998217 0.851595
219 1 0.851343 0.811574 0.786401
268 1 0.899021 0.900697 0.883719
282 1 0.762761 0.862212 0.944468
ITEM: TIMESTEP
10000
ITEM: NUMBER OF ATOMS
360
ITEM: BOX BOUNDS pp pp pp
0.0000000000000000e+00 6.6943295008216896e+00
0.0000000000000000e+00 6.6943295008216896e+00
0.0000000000000000e+00 6.6943295008216896e+00
ITEM: ATOMS id type xs ys zs
6 1 0.11679 0.0841383 0.0817775
72 1 0.166746 0.264153 0.172764
249 1 0.236026 0.189993 0.0443065
32 1 0.237848 0.132899 0.198221
313 2 0.107078 0.104881 0.220244
21 1 0.208351 0.359807 0.0253603
37 1 0.452554 0.0846099 0.0253357
87 1 0.0131928 0.330472 0.356136
324 2 0.348795 0.133711 0.121187
125 1 0.381568 0.0915506 0.238491
250 1 0.337247 0.254274 0.179233
207 1 0.334015 0.0121804 0.103006
169 1 0.380683 0.227154 0.0251144
273 1 0.256212 0.395826 0.180729
132 1 0.115915 0.392159 0.132187
188 1 0.0853355 0.250009 0.0388524
310 2 0.0254451 0.0155879 0.138835
287 1 0.265024 0.245834 0.466222
168 1 0.140787 0.322023 0.443716
242 1 0.0287641 0.448458 0.490299
63 1 0.374737 0.482248 0.181426
162 1 0.360551 0.391816 0.0413967
296 2 0.139831 0.454562 0.419682
224 1 0.273736 0.415115 0.432814
118 1 0.144545 0.407423 0.301866
350 2 0.0923456 0.036564 0.466469
31 1 0.383447 0.379951 0.287162
86 1 0.14284 0.0651166 0.355882
95 1 0.0946157 0.217843 0.311813
293 2 0.480956 0.286898 0.0696924
266 1 0.253089 0.0578309 0.470788
248 1 0.405332 0.311116 0.44508
186 1 0.483754 0.341603 0.188782
275 1 0.303104 0.159333 0.34144
190 1 0.427799 0.232235 0.318264
50 1 0.392989 0.136002 0.462563
18 1 0.391684 0.0301625 0.367387
243 1 0.261705 0.314747 0.303577
55 1 0.486106 0.179686 0.147807
16 1 0.12883 0.172854 0.480321
28 1 0.00649529 0.299208 0.186955
245 1 0.0159021 0.451455 0.218153
100 1 0.493795 0.415528 0.371524
330 2 0.496532 0.154355 0.404662
215 1 0.151796 0.047604 0.586258
331 2 0.100778 0.149351 0.617895
200 1 0.206522 0.206709 0.614148
304 2 0.23105 0.084154 0.704295
295 2 0.225065 0.453692 0.645972
220 1 0.106779 0.0828864 0.779599
154 1 0.36836 0.122256 0.737875
211 1 0.468676 0.44062 0.79178
271 1 0.308637 0.0902363 0.603675
69 1 0.0866061 0.290087 0.593266
81 1 0.480682 0.208275 0.681056
191 1 0.242104 0.348935 0.57589
284 1 0.0815765 0.426664 0.644335
83 1 0.0625673 0.413131 0.997774
124 1 0.382475 0.216141 0.577962
177 1 0.312223 0.0896545 0.958981
281 1 0.38642 0.449089 0.528216
359 2 0.318077 0.223648 0.690535
138 1 0.349266 0.402533 0.682193
309 2 0.396852 0.339868 0.588095
329 2 0.373308 0.0189698 0.501164
279 1 0.394587 0.284758 0.782892
259 1 0.109382 0.248556 0.753902
152 1 0.256419 0.0438223 0.829091
291 2 0.185959 0.0784183 0.977468
14 1 0.154893 0.178919 0.907187
155 1 0.078181 0.0446539 0.915069
247 1 0.321801 0.420212 0.840515
39 1 0.412675 0.0392121 0.858841
153 1 0.24152 0.196258 0.788219
317 2 0.355326 0.178996 0.852559
114 1 0.468399 0.18011 0.899792
197 1 0.21883 0.341811 0.739063
351 2 0.0172903 0.16197 0.961548
225 1 0.145828 0.342133 0.882979
184 1 0.0390329 0.441288 0.796429
254 1 0.441119 0.333255 0.920312
40 1 0.294328 0.27291 0.907741
257 1 0.450592 0.493444 0.925017
246 1 0.454802 0.0503647 0.624444
116 1 0.206844 0.485571 0.90773
341 2 0.493133 0.248653 0.553028
15 1 0.492941 0.350948 0.669347
233 1 0.190449 0.487268 0.537967
355 2 0.0693018 0.00182352 0.655321
110 1 0.136758 0.670584 0.13689
270 1 0.021363 0.61606 0.209841
222 1 0.106557 0.534954 0.072705
226 1 0.048905 0.689073 0.374529
171 1 0.123905 0.830061 0.290533
228 1 0.309425 0.611473 0.154227
307 2 0.239757 0.740508 0.11627
212 1 0.433099 0.626692 0.254023
84 1 0.438313 0.553704 0.0796905
347 2 0.443872 0.68088 0.131957
131 1 0.352969 0.743488 0.185462
82 1 0.217925 0.540153 0.357939
4 1 0.0586587 0.800734 0.150932
261 1 0.0446584 0.912226 0.0506168
22 1 0.224576 0.846541 0.176419
244 1 0.152534 0.779459 0.0307624
8 1 0.194989 0.955021 0.0758653
178 1 0.141436 0.983064 0.225318
297 2 0.498025 0.531628 0.321563
292 2 0.290755 0.530089 0.479037
256 1 0.448956 0.95271 0.200317
129 1 0.429597 0.799847 0.0584248
354 2 0.338278 0.889813 0.150362
5 1 0.351118 0.674817 0.0230542
142 1 0.294796 0.843003 0.0164429
19 1 0.365489 0.869499 0.286776
298 2 0.145872 0.624684 0.314847
343 2 0.0660931 0.72795 0.258633
277 1 0.378778 0.536173 0.376214
221 1 0.191993 0.696912 0.417208
1 1 0.247717 0.821778 0.363361
160 1 0.0473448 0.513923 0.361386
312 2 0.125023 0.595008 0.451387
54 1 0.354528 0.896832 0.452209
120 1 0.454816 0.767983 0.351083
48 1 0.158441 0.525715 0.213964
23 1 0.287148 0.520883 0.0214686
166 1 0.336764 0.68309 0.396904
333 2 0.459896 0.638372 0.398035
128 1 0.223338 0.713393 0.253322
227 1 0.0366218 0.963473 0.375326
104 1 0.241494 0.958997 0.32458
156 1 0.187319 0.934269 0.46358
135 1 0.102207 0.81565 0.483093
289 2 0.306112 0.530747 0.265936
327 2 0.269615 0.983092 0.207256
208 1 0.433677 0.778975 0.498914
189 1 0.145381 0.613535 0.67428
300 2 0.112565 0.715297 0.746441
170 1 0.236225 0.630176 0.53224
288 1 0.404539 0.931373 0.966612
96 1 0.05685 0.576615 0.559812
174 1 0.397824 0.611992 0.509831
319 2 0.328186 0.694174 0.583872
122 1 0.312065 0.549632 0.637282
165 1 0.418084 0.666181 0.676764
223 1 0.283804 0.686332 0.733458
345 2 0.348961 0.514759 0.76496
274 1 0.183335 0.754379 0.644687
235 1 0.0650971 0.855722 0.652451
38 1 0.170371 0.94109 0.716144
322 2 0.154978 0.902469 0.583521
360 2 0.268658 0.970725 0.96834
33 1 0.0440101 0.546288 0.916752
172 1 0.0427321 0.949089 0.538415
111 1 0.211726 0.507408 0.76067
94 1 0.326289 0.830678 0.691015
183 1 0.282263 0.937898 0.594008
290 2 0.110134 0.693055 0.544367
286 1 0.34794 0.974898 0.725149
285 1 0.263453 0.796948 0.518216
263 1 0.176075 0.631043 0.975702
141 1 0.128086 0.616712 0.827497
130 1 0.257577 0.749795 0.909737
357 2 0.371688 0.800219 0.923764
107 1 0.390645 0.726927 0.834845
99 1 0.450112 0.898653 0.579004
348 2 0.426666 0.643607 0.92667
278 1 0.304756 0.594872 0.880224
113 1 0.441943 0.597934 0.810592
334 2 0.151907 0.975365 0.844198
209 1 0.111888 0.752785 0.892924
20 1 0.195725 0.81655 0.787914
85 1 0.143567 0.894112 0.944608
119 1 0.0672641 0.881638 0.805327
92 1 0.43048 0.865552 0.803732
241 1 0.287385 0.904196 0.865481
62 1 0.47604 0.795283 0.685147
272 1 0.022757 0.714259 0.652259
262 1 0.454731 0.506707 0.653783
342 2 0.0348398 0.803027 0.999467
195 1 0.0159982 0.673453 0.99445
46 1 0.60806 0.100229 0.185809
192 1 0.717182 0.18702 0.484998
326 2 0.787993 0.130143 0.0118875
150 1 0.727849 0.24227 0.0386334
301 2 0.503793 0.0357619 0.135981
112 1 0.983308 0.149528 0.144762
204 1 0.7442 0.108919 0.130786
294 2 0.832847 0.095186 0.233135
193 1 0.967829 0.0417212 0.0221594
64 1 0.839621 0.247601 0.138423
339 2 0.709531 0.294351 0.17655
164 1 0.610835 0.24043 0.127055
79 1 0.626068 0.394631 0.204268
159 1 0.883967 0.00865106 0.155549
66 1 0.60135 0.12738 0.0310449
17 1 0.781521 0.394144 0.151769
181 1 0.930222 0.399069 0.0949406
311 2 0.948418 0.277826 0.0647813
26 1 0.843238 0.243442 0.405142
41 1 0.578069 0.244338 0.271914
30 1 0.751645 0.499579 0.264128
260 1 0.749321 0.0044007 0.234972
198 1 0.660785 0.117711 0.345485
61 1 0.765393 0.477358 0.427765
12 1 0.905989 0.183443 0.00126575
325 2 0.818625 0.390443 0.35993
338 2 0.699963 0.24054 0.369895
251 1 0.882074 0.33688 0.256275
35 1 0.980268 0.242817 0.492712
117 1 0.748306 0.194905 0.248598
167 1 0.804402 0.0921435 0.405346
218 1 0.909335 0.187383 0.284425
140 1 0.618827 0.490565 0.343384
303 2 0.635449 0.431465 0.458857
51 1 0.721863 0.342801 0.313113
143 1 0.581059 0.257538 0.432131
276 1 0.517559 0.418178 0.0546239
302 2 0.591695 0.34918 0.334393
36 1 0.52769 0.0723397 0.314298
151 1 0.903718 0.375959 0.442335
29 1 0.897331 0.484182 0.327789
239 1 0.975106 0.0985405 0.404843
308 2 0.889186 0.477645 0.19081
139 1 0.686075 0.376421 0.0078581
93 1 0.993755 0.0591318 0.266708
49 1 0.756209 0.170791 0.650509
182 1 0.61021 0.0907607 0.647212
217 1 0.66709 0.0428339 0.514287
328 2 0.603891 0.185035 0.729805
161 1 0.833267 0.00987667 0.53714
179 1 0.999993 0.288478 0.915458
238 1 0.990276 0.0143331 0.756315
265 1 0.866555 0.0821518 0.685731
255 1 0.855856 0.223423 0.739553
216 1 0.981722 0.181374 0.671352
58 1 0.875738 0.175492 0.562138
335 2 0.826344 0.296912 0.525559
136 1 0.630104 0.233285 0.592542
264 1 0.844312 0.464433 0.569078
144 1 0.643365 0.351957 0.662975
91 1 0.712773 0.0621121 0.922465
43 1 0.841727 0.329136 0.977746
121 1 0.926587 0.447793 0.916282
47 1 0.793466 0.321341 0.651539
53 1 0.941345 0.333225 0.591339
88 1 0.905569 0.436795 0.70777
214 1 0.830915 0.360229 0.828469
102 1 0.977446 0.158638 0.841695
269 1 0.622874 0.195394 0.882244
73 1 0.715572 0.260018 0.763127
175 1 0.712694 0.33799 0.511034
60 1 0.711836 0.101535 0.778477
74 1 0.664537 0.490863 0.561719
133 1 0.538018 0.13672 0.532549
282 1 0.859781 0.0504102 0.882999
13 1 0.786478 0.198878 0.909717
349 2 0.889655 0.255068 0.880707
24 1 0.540347 0.283614 0.803955
145 1 0.566562 0.268728 0.987543
337 2 0.705394 0.293133 0.893298
78 1 0.974745 0.310015 0.755966
213 1 0.642264 0.389641 0.826828
321 2 0.554496 0.399829 0.911871
149 1 0.743575 0.446934 0.72481
352 2 0.973603 0.486671 0.590783
7 1 0.544274 0.384307 0.53049
253 1 0.539552 0.0882332 0.790928
25 1 0.772945 0.490057 0.910754
173 1 0.994019 0.0923138 0.548548
108 1 0.729627 0.608782 0.117916
280 1 0.531195 0.538189 0.45145
210 1 0.573009 0.645077 0.127069
203 1 0.630325 0.506906 0.0707522
44 1 0.882395 0.966568 0.361574
230 1 0.901553 0.560059 0.449012
340 2 0.665179 0.574617 0.216455
137 1 0.954617 0.556912 0.0764152
187 1 0.814366 0.511053 0.0483775
126 1 0.911732 0.716406 0.0950272
176 1 0.780755 0.73766 0.179152
3 1 0.740141 0.742793 0.0222372
283 1 0.875472 0.603705 0.208437
70 1 0.598955 0.789484 0.0856005
194 1 0.609847 0.925756 0.19347
77 1 0.724549 0.877745 0.112542
232 1 0.519811 0.92979 0.0533984
157 1 0.514115 0.776 0.229454
101 1 0.946769 0.759736 0.244788
185 1 0.510615 0.911641 0.33294
123 1 0.908125 0.856903 0.113023
45 1 0.64516 0.994557 0.0681378
9 1 0.555717 0.695429 0.443352
80 1 0.569266 0.855884 0.467104
97 1 0.722637 0.641845 0.302228
52 1 0.672486 0.597581 0.445151
90 1 0.568913 0.629208 0.28921
59 1 0.517079 0.68594 0.00269068
68 1 0.51994 0.991111 0.453825
323 2 0.955124 0.599728 0.338418
316 2 0.830212 0.590738 0.350119
306 2 0.939532 0.993979 0.471276
163 1 0.835421 0.73772 0.343843
57 1 0.683836 0.827995 0.261729
320 2 0.816747 0.85839 0.398517
76 1 0.711735 0.943116 0.386491
89 1 0.690934 0.763846 0.400751
109 1 0.817236 0.682473 0.474732
11 1 0.520712 0.506255 0.199922
67 1 0.832083 0.957542 0.0098687
134 1 0.974931 0.825138 0.383684
229 1 0.842586 0.872988 0.247785
202 1 0.992127 0.920958 0.219707
234 1 0.90009 0.865717 0.493919
148 1 0.757587 0.586547 0.652305
237 1 0.710894 0.734709 0.564361
115 1 0.643787 0.69176 0.713354
252 1 0.952838 0.931252 0.906513
147 1 0.601732 0.528292 0.72968
71 1 0.539955 0.604149 0.586115
56 1 0.646164 0.968655 0.799485
105 1 0.865303 0.745047 0.621924
236 1 0.904467 0.597012 0.598175
34 1 0.800028 0.973906 0.761248
346 2 0.900388 0.666161 0.71174
158 1 0.738853 0.814739 0.718435
356 2 0.555445 0.963628 0.595783
146 1 0.619391 0.854343 0.617682
305 2 0.997129 0.79781 0.86684
240 1 0.52683 0.959121 0.720035
353 2 0.530377 0.776847 0.572585
344 2 0.63049 0.761712 0.955557
332 2 0.803373 0.867644 0.6237
358 2 0.519983 0.688566 0.732724
196 1 0.92721 0.847767 0.767511
180 1 0.915431 0.933593 0.63835
106 1 0.72019 0.968574 0.645905
75 1 0.990827 0.682479 0.811513
10 1 0.741701 0.873169 0.514988
267 1 0.595898 0.523862 0.886147
206 1 0.712992 0.585063 0.80811
103 1 0.556612 0.685574 0.855646
205 1 0.542113 0.978999 0.899376
219 1 0.697255 0.753031 0.854317
318 2 0.767774 0.686405 0.71274
201 1 0.504956 0.820943 0.92807
127 1 0.797361 0.878287 0.88501
268 1 0.838091 0.726261 0.824341
2 1 0.900175 0.790356 0.950743
314 2 0.77022 0.668127 0.901103
199 1 0.869088 0.548681 0.807145
258 1 0.882456 0.609595 0.946606
231 1 0.647816 0.884302 0.94236
98 1 0.57981 0.828717 0.781976
315 2 0.536267 0.556772 0.991448
65 1 0.662046 0.626006 0.97889
42 1 0.994613 0.562257 0.715439
299 2 0.983046 0.814618 0.560043
336 2 0.779239 0.570098 0.519806
27 1 0.9615 0.685411 0.508039
ITEM: TIMESTEP
20000
ITEM: NUMBER OF ATOMS
360
ITEM: BOX BOUNDS pp pp pp
0.0000000000000000e+00 6.6943295008216896e+00
0.0000000000000000e+00 6.6943295008216896e+00
0.0000000000000000e+00 6.6943295008216896e+00
ITEM: ATOMS id type xs ys zs
6 1 0.0191533 0.15017 0.127822
178 1 0.203577 0.136352 0.133926
169 1 0.498885 0.197568 0.150388
179 1 0.0905408 0.241457 0.0419329
309 2 0.375842 0.278566 0.476159
324 2 0.400952 0.100195 0.19754
250 1 0.326892 0.208834 0.222701
249 1 0.343223 0.114655 0.0912417
313 2 0.203929 0.400821 0.052778
32 1 0.279913 0.0474578 0.235005
21 1 0.226186 0.291882 0.125026
35 1 0.0395955 0.278529 0.383209
132 1 0.152064 0.415888 0.174036
28 1 0.105519 0.267235 0.210487
276 1 0.451576 0.419962 0.06469
273 1 0.306869 0.423155 0.142997
162 1 0.372254 0.259538 0.0678003
186 1 0.42815 0.329555 0.190325
93 1 0.0237917 0.151539 0.290132
239 1 0.0477251 0.068878 0.492573
355 2 0.0880698 0.166917 0.39939
86 1 0.112779 0.0371744 0.215674
266 1 0.170313 0.0341952 0.376431
177 1 0.483345 0.0488645 0.108903
275 1 0.471502 0.152983 0.302936
82 1 0.252594 0.335209 0.271399
243 1 0.324008 0.152973 0.380942
350 2 0.0407619 0.017428 0.367657
248 1 0.468865 0.177563 0.440083
261 1 0.0688097 0.0436208 0.0491907
72 1 0.177997 0.159366 0.282394
212 1 0.274079 0.479199 0.272134
168 1 0.139137 0.372887 0.479471
95 1 0.20049 0.260973 0.400448
118 1 0.104734 0.406968 0.330073
31 1 0.398083 0.29411 0.351342
90 1 0.443392 0.493139 0.201254
100 1 0.479265 0.350002 0.465814
224 1 0.295292 0.398429 0.414004
289 2 0.380762 0.413765 0.301635
271 1 0.212202 0.13008 0.480066
125 1 0.433967 0.00768724 0.27903
181 1 0.0151274 0.368507 0.122794
124 1 0.168108 0.180513 0.635275
331 2 0.0482605 0.173829 0.635337
16 1 0.0893497 0.218668 0.513332
173 1 0.0544357 0.155847 0.755042
180 1 0.111104 0.0494076 0.624182
287 1 0.338857 0.115097 0.54209
23 1 0.0985515 0.373903 0.970372
286 1 0.275157 0.0595791 0.673719
154 1 0.445346 0.211835 0.593981
359 2 0.31795 0.199588 0.625278
116 1 0.230958 0.49687 0.818561
345 2 0.180156 0.332177 0.598428
200 1 0.0798577 0.292661 0.64756
138 1 0.389937 0.432678 0.86748
278 1 0.190621 0.49952 0.965617
191 1 0.262449 0.259212 0.528476
284 1 0.247916 0.445393 0.575889
197 1 0.166031 0.401239 0.711219
153 1 0.26941 0.277827 0.698425
295 2 0.44891 0.444901 0.665092
15 1 0.37652 0.359506 0.591983
279 1 0.336547 0.429264 0.724473
24 1 0.443289 0.316324 0.725594
39 1 0.438172 0.0152062 0.962703
14 1 0.352901 0.290429 0.84001
238 1 0.154968 0.172664 0.869452
155 1 0.0655592 0.0435631 0.894269
356 2 0.406623 0.0677061 0.67207
220 1 0.238097 0.230055 0.97335
205 1 0.37756 0.172798 0.928946
317 2 0.404363 0.04187 0.850032
83 1 0.084309 0.480161 0.856199
291 2 0.327048 0.0607294 0.954057
152 1 0.277813 0.0942958 0.842373
40 1 0.370403 0.16465 0.7475
304 2 0.160753 0.233763 0.751341
293 2 0.427573 0.298726 0.946191
259 1 0.0606407 0.313833 0.801508
247 1 0.196106 0.339857 0.848319
257 1 0.303382 0.388103 0.992474
351 2 0.000950352 0.182925 0.866191
8 1 0.200108 0.0743736 0.991939
38 1 0.155621 0.0322699 0.761459
228 1 0.224613 0.563387 0.160893
292 2 0.29454 0.72107 0.476535
131 1 0.145113 0.694782 0.162944
263 1 0.0767919 0.666919 0.0397303
142 1 0.32602 0.941364 0.0151997
222 1 0.0755328 0.504801 0.067869
307 2 0.0382299 0.775096 0.119082
347 2 0.495251 0.752512 0.0907751
157 1 0.308755 0.676937 0.129647
348 2 0.337114 0.56362 0.178679
63 1 0.329503 0.543907 0.0456869
22 1 0.108775 0.895185 0.0118173
171 1 0.0992841 0.854361 0.209603
1 1 0.231448 0.846925 0.156901
327 2 0.222914 0.881951 0.0447257
354 2 0.15345 0.768405 0.054857
193 1 0.216476 0.990197 0.103056
221 1 0.0095028 0.761211 0.444363
207 1 0.463036 0.847698 0.204141
129 1 0.37692 0.815878 0.100361
37 1 0.358348 0.964595 0.150489
52 1 0.402061 0.511585 0.390801
201 1 0.478753 0.913883 0.0652082
128 1 0.0939612 0.696387 0.321736
170 1 0.0887616 0.628243 0.462356
48 1 0.09897 0.553586 0.250968
166 1 0.234726 0.661184 0.271415
298 2 0.185849 0.63665 0.379938
18 1 0.362549 0.997921 0.420207
89 1 0.474544 0.647477 0.42998
277 1 0.306872 0.632347 0.406685
333 2 0.389306 0.717013 0.362562
57 1 0.372685 0.616589 0.278908
322 2 0.245695 0.944863 0.423685
290 2 0.199173 0.779516 0.248824
59 1 0.424837 0.699348 0.0059981
84 1 0.460954 0.646773 0.155581
156 1 0.234621 0.776725 0.373598
227 1 0.10097 0.882767 0.353652
246 1 0.486012 0.928145 0.465356
104 1 0.256695 0.914998 0.299248
19 1 0.39361 0.87233 0.350546
285 1 0.34693 0.774949 0.252697
334 2 0.0976557 0.941881 0.125617
233 1 0.209159 0.512987 0.41167
312 2 0.31789 0.527443 0.498075
141 1 0.129817 0.672937 0.63495
92 1 0.39117 0.73057 0.846571
297 2 0.42216 0.636479 0.567439
111 1 0.199784 0.548562 0.678169
96 1 0.0931666 0.510026 0.554705
122 1 0.231386 0.629536 0.542229
174 1 0.34475 0.557833 0.645901
165 1 0.427786 0.585812 0.80738
332 2 0.0293946 0.995776 0.746972
62 1 0.433094 0.697443 0.687317
241 1 0.362001 0.927757 0.861019
300 2 0.243506 0.759797 0.713408
235 1 0.123322 0.898358 0.691822
20 1 0.278347 0.886731 0.661761
281 1 0.444837 0.501874 0.543783
319 2 0.380219 0.797124 0.738375
306 2 0.0614535 0.784821 0.603878
209 1 0.123674 0.733539 0.768162
99 1 0.425844 0.987274 0.577966
274 1 0.455256 0.84294 0.637808
189 1 0.309005 0.724609 0.617345
94 1 0.416354 0.949002 0.727321
215 1 0.234174 0.991089 0.542723
352 2 0.092193 0.581631 0.766957
195 1 0.157923 0.619764 0.866428
342 2 0.0856636 0.570851 0.961227
223 1 0.292259 0.64153 0.775303
107 1 0.30075 0.792549 0.960118
357 2 0.256131 0.709875 0.878418
103 1 0.319757 0.582389 0.905181
344 2 0.492991 0.655302 0.891168
65 1 0.469057 0.546483 0.955654
135 1 0.165825 0.760938 0.524325
119 1 0.0737274 0.895792 0.837325
244 1 0.14213 0.77378 0.923866
85 1 0.201143 0.935963 0.911845
130 1 0.257852 0.834932 0.812729
172 1 0.128317 0.901999 0.506774
288 1 0.458558 0.82563 0.941819
120 1 0.411371 0.760798 0.501023
252 1 0.0183823 0.677787 0.889913
262 1 0.490438 0.564356 0.668284
196 1 0.00471402 0.821761 0.70764
225 1 0.0326773 0.500347 0.69619