ITEM: TIMESTEP
0
ITEM: NUMBER OF ATOMS
360
ITEM: BOX BOUNDS pp pp pp
0.0000000000000000e+00 6.6943295008216896e+00
0.0000000000000000e+00 6.6943295008216896e+00
0.0000000000000000e+00 6.6943295008216896e+00
ITEM: ATOMS id type xs ys zs
72 1 0.118807 0.117307 0.12758
195 1 0.0646832 0.201172 0.248637
346 2 0.181108 0.19292 0.0504291
353 2 0.0251158 0.095917 0.0257395
127 1 0.0837729 0.245349 0.0147201
16 1 0.254049 0.232516 0.143915
211 1 0.28065 0.0735114 0.160132
245 1 0.440664 0.0699275 0.180153
69 1 0.401239 0.227467 0.116272
267 1 0.453071 0.0775429 0.0449112
155 1 0.308998 0.148589 0.0107096
204 1 0.188986 0.445555 0.188851
150 1 0.110207 0.316285 0.145263
152 1 0.126492 0.419944 0.0263258
222 1 0.0388642 0.459156 0.141118
111 1 0.260603 0.365837 0.0706674
183 1 0.340509 0.340045 0.228136
266 1 0.399297 0.390068 0.106658
289 2 0.476356 0.333759 0.203653
84 1 0.208894 0.143709 0.269527
131 1 0.0949062 0.0668963 0.333873
333 2 0.029108 0.126518 0.426108
239 1 0.12904 0.21807 0.391358
300 2 0.183451 0.0176457 0.436455
161 1 0.355788 0.184181 0.253611
234 1 0.333652 0.0193506 0.32091
64 1 0.266746 0.112321 0.40957
123 1 0.396422 0.0488536 0.469703
324 2 0.394917 0.185329 0.377299
201 1 0.468501 0.0752337 0.339075
24 1 0.496065 0.215201 0.287036
268 1 0.012643 0.381255 0.448093
119 1 0.18462 0.356312 0.449051
214 1 0.0877063 0.421223 0.312157
265 1 0.187876 0.293926 0.275177
283 1 0.425875 0.265042 0.471201
12 1 0.301034 0.273223 0.379008
244 1 0.420412 0.360628 0.357129
272 1 0.276542 0.432333 0.333743
286 1 0.0881659 0.141157 0.673183
95 1 0.148191 0.118738 0.5199
340 2 0.166324 0.0212078 0.640122
10 1 0.231966 0.178841 0.680329
43 1 0.246693 0.231648 0.519798
104 1 0.312171 0.0407854 0.719992
116 1 0.349835 0.134704 0.584286
219 1 0.259272 0.00484937 0.536592
56 1 0.488987 0.190009 0.624235
331 2 0.419055 0.0273148 0.623561
303 2 0.125281 0.277297 0.660423
100 1 0.0738968 0.250748 0.537973
240 1 0.0930684 0.403294 0.585253
30 1 0.16538 0.44655 0.708975
315 2 0.0569096 0.481778 0.726382
209 1 0.249946 0.321512 0.641188
189 1 0.24291 0.497373 0.566982
311 2 0.345922 0.258683 0.588209
138 1 0.366069 0.264166 0.728527
252 1 0.330746 0.450439 0.685119
1 1 0.441212 0.352466 0.607093
63 1 0.332393 0.390169 0.505573
205 1 0.17947 0.094672 0.782524
20 1 0.114109 0.22465 0.855329
168 1 0.033028 0.0663391 0.89102
172 1 0.172224 0.112549 0.956531
358 2 0.152239 0.00143789 0.901846
277 1 0.438963 0.122662 0.752382
206 1 0.426392 0.163079 0.911215
130 1 0.290446 0.195569 0.840504
9 1 0.300514 0.047211 0.884763
115 1 0.441975 0.00477272 0.885693
212 1 0.124308 0.419639 0.871248
134 1 0.056207 0.342773 0.752519
281 1 0.217227 0.304506 0.94277
359 2 0.019116 0.434932 0.982326
170 1 0.220814 0.313168 0.781604
323 2 0.424154 0.280525 0.847621
320 2 0.267817 0.411888 0.938076
136 1 0.464272 0.385216 0.754134
278 1 0.397544 0.303648 0.970378
200 1 0.389064 0.457529 0.968929
114 1 0.339513 0.372297 0.837555
349 2 0.475468 0.43431 0.88707
36 1 0.251442 0.498903 0.838143
224 1 0.147638 0.578839 0.136466
295 2 0.0313812 0.581813 0.0935512
175 1 0.081361 0.701837 0.239603
39 1 0.0124505 0.708597 0.0296848
5 1 0.167695 0.73239 0.118712
197 1 0.240372 0.510662 0.0179853
196 1 0.482498 0.679509 0.0221793
233 1 0.425217 0.557022 0.0730792
174 1 0.282695 0.645527 0.151933
77 1 0.448493 0.647676 0.197015
271 1 0.33702 0.680685 0.0160575
247 1 0.331361 0.521208 0.210615
57 1 0.0725206 0.978684 0.0172645
167 1 0.18166 0.829505 0.226307
357 2 0.175552 0.886902 0.112981
221 1 0.0523296 0.862032 0.136343
210 1 0.154147 0.992539 0.202933
106 1 0.239312 0.981866 0.0426381
112 1 0.27371 0.825649 0.0636878
89 1 0.295773 0.937741 0.194368
269 1 0.319922 0.781628 0.215034
120 1 0.446474 0.787887 0.110772
38 1 0.394073 0.924908 0.0712843
60 1 0.44213 0.930613 0.248815
22 1 0.0323524 0.552349 0.257077
48 1 0.142625 0.501733 0.450235
313 2 0.220304 0.691959 0.256673
53 1 0.193148 0.567082 0.29034
78 1 0.0938023 0.661478 0.382085
140 1 0.232316 0.642579 0.427981
342 2 0.0402138 0.614988 0.485654
329 2 0.477157 0.561197 0.454348
301 2 0.451504 0.614057 0.315984
58 1 0.328936 0.649631 0.305292
325 2 0.356636 0.718025 0.426274
280 1 0.367789 0.545582 0.406189
66 1 0.478763 0.691041 0.407461
182 1 0.0249412 0.936349 0.279539
33 1 0.249823 0.788739 0.383823
132 1 0.195542 0.932769 0.334829
164 1 0.0874646 0.80717 0.360573
32 1 0.140022 0.890959 0.499635
163 1 0.489486 0.919034 0.494091
18 1 0.398238 0.811399 0.355002
332 2 0.437426 0.938556 0.373313
355 2 0.3206 0.891355 0.301335
154 1 0.325518 0.911124 0.441935
85 1 0.118872 0.565266 0.640013
319 2 0.18617 0.627172 0.538425
147 1 0.159864 0.712379 0.645471
67 1 0.0149002 0.706716 0.745948
253 1 0.00264667 0.68843 0.583749
251 1 0.127432 0.738954 0.506077
284 1 0.261696 0.593901 0.708871
55 1 0.420567 0.610843 0.686968
336 2 0.384976 0.732499 0.60873
169 1 0.306769 0.632723 0.556484
279 1 0.471236 0.647572 0.556275
65 1 0.408596 0.505134 0.566032
228 1 0.0795592 0.845543 0.653282
258 1 0.221076 0.896122 0.652057
109 1 0.0605142 0.991811 0.574977
135 1 0.0640359 0.986467 0.73192
162 1 0.432239 0.790472 0.508658
213 1 0.296044 0.756801 0.694281
241 1 0.286035 0.781301 0.540641
71 1 0.379584 0.90899 0.607865
121 1 0.484488 0.789071 0.666368
291 2 0.160988 0.533144 0.905932
348 2 0.201623 0.664712 0.817049
50 1 0.0565544 0.554283 0.969234
242 1 0.109841 0.572221 0.801447
103 1 0.0844135 0.706227 0.885909
83 1 0.181307 0.640562 0.989314
149 1 0.497968 0.67029 0.814849
334 2 0.276561 0.597348 0.911524
137 1 0.331615 0.674492 0.822102
298 2 0.415554 0.598713 0.922777
217 1 0.411173 0.526559 0.825376
3 1 0.129115 0.845053 0.990746
220 1 0.0687908 0.908842 0.859747
105 1 0.152614 0.803644 0.787491
264 1 0.227925 0.755543 0.915744
288 1 0.21927 0.936796 0.794835
356 2 0.281131 0.803567 0.80842
125 1 0.37803 0.908409 0.771637
305 2 0.456117 0.891867 0.93416
108 1 0.315619 0.895679 0.91919
297 2 0.408497 0.782156 0.776592
139 1 0.399623 0.766084 0.910132
312 2 0.35691 0.993793 0.987689
227 1 0.700675 0.159705 0.188992
274 1 0.556544 0.173203 0.159607
198 1 0.691318 0.236093 0.0443158
259 1 0.652298 0.0673901 0.0565685
126 1 0.582379 0.0245693 0.21699
308 2 0.777847 0.0509972 0.0611994
117 1 0.965899 0.171756 0.126223
255 1 0.843777 0.0711532 0.161661
94 1 0.831117 0.172274 0.0601978
14 1 0.978129 0.0108954 0.145521
61 1 0.536906 0.447785 0.0383481
328 2 0.647866 0.27404 0.17297
273 1 0.551093 0.316948 0.10314
87 1 0.672736 0.430998 0.145318
148 1 0.513594 0.46508 0.200641
290 2 0.655793 0.491516 0.0119219
91 1 0.774172 0.300275 0.165822
235 1 0.877424 0.439631 0.159005
99 1 0.928096 0.319677 0.0535171
184 1 0.962099 0.311294 0.210733
25 1 0.754291 0.39008 0.0155957
187 1 0.524582 0.154623 0.466214
216 1 0.624413 0.139416 0.336608
276 1 0.592674 0.0144677 0.415867
188 1 0.742192 0.191443 0.446961
141 1 0.984555 0.00128103 0.423116
193 1 0.769395 0.0227616 0.439551
86 1 0.760001 0.0622897 0.297561
145 1 0.835884 0.195908 0.283297
13 1 0.94742 0.0898797 0.281011
110 1 0.876936 0.132808 0.416502
350 2 0.866248 0.00318152 0.341376
338 2 0.634927 0.480923 0.260787
226 1 0.565126 0.309321 0.400877
29 1 0.660045 0.487211 0.389063
250 1 0.711922 0.275248 0.293053
17 1 0.590575 0.350508 0.255513
337 2 0.715682 0.375598 0.398109
31 1 0.507613 0.492161 0.357834
181 1 0.969674 0.252229 0.363081
341 2 0.850845 0.324825 0.278359
133 1 0.766114 0.41736 0.28181
75 1 0.928309 0.435561 0.318354
237 1 0.826342 0.316167 0.394512
176 1 0.665303 0.100444 0.518298
159 1 0.617647 0.139619 0.695077
309 2 0.74085 0.0998644 0.67324
285 1 0.536597 0.0451581 0.572795
294 2 0.619652 0.211867 0.560968
263 1 0.753105 0.213201 0.593264
82 1 0.828371 0.174249 0.713368
35 1 0.824944 0.0878433 0.566573
27 1 0.974766 0.242317 0.655013
144 1 0.949665 0.0714275 0.688173
8 1 0.974473 0.117565 0.541309
34 1 0.70071 0.266534 0.733817
79 1 0.653139 0.321693 0.517722
46 1 0.605425 0.38152 0.668291
158 1 0.717623 0.467447 0.537176
302 2 0.528882 0.300721 0.538097
352 2 0.513609 0.464789 0.63052
157 1 0.543638 0.434892 0.508735
180 1 0.891241 0.254517 0.511875
47 1 0.763628 0.362615 0.629272
299 2 0.860072 0.283426 0.646936
93 1 0.927977 0.394707 0.679506
73 1 0.864278 0.412605 0.518767
343 2 0.965233 0.341253 0.566877
354 2 0.768609 0.309075 0.508628
98 1 0.629901 0.174916 0.846808
122 1 0.724233 0.0592511 0.795493
347 2 0.555539 0.0919765 0.919247
80 1 0.583925 0.0352679 0.811852
156 1 0.742642 0.138932 0.936479
37 1 0.550783 0.204221 0.999535
15 1 0.905782 0.0463328 0.996167
178 1 0.966802 0.21771 0.794587
296 2 0.765031 0.192828 0.822519
96 1 0.866973 0.0787722 0.848051
238 1 0.948707 0.182774 0.96339
113 1 0.543845 0.253726 0.750156
326 2 0.63583 0.341137 0.995754
215 1 0.616373 0.434538 0.897591
45 1 0.715343 0.410655 0.771403
293 2 0.602743 0.362897 0.799218
70 1 0.692352 0.306988 0.884174
49 1 0.528202 0.325739 0.900871
41 1 0.837002 0.275453 0.948904
202 1 0.852063 0.323162 0.800783
102 1 0.883478 0.427088 0.936059
306 2 0.776171 0.398876 0.877688
81 1 0.990378 0.464709 0.834365
256 1 0.977964 0.315805 0.905573
165 1 0.592384 0.570137 0.109512
68 1 0.598888 0.716443 0.12374
330 2 0.688216 0.708319 0.220595
190 1 0.747257 0.702539 0.0859595
191 1 0.718612 0.570003 0.198285
317 2 0.834727 0.631668 0.13714
97 1 0.921377 0.525295 0.0447991
51 1 0.810904 0.708602 0.237668
231 1 0.770589 0.543687 0.0536667
173 1 0.952918 0.651276 0.164231
185 1 0.724881 0.987924 0.166797
186 1 0.692806 0.883565 0.0390079
101 1 0.538416 0.955097 0.0827131
2 1 0.584939 0.871814 0.196312
345 2 0.67035 0.764595 0.0245233
166 1 0.732923 0.821839 0.173901
223 1 0.536726 0.816449 8.39223e-05
262 1 0.881697 0.780296 0.106118
52 1 0.830648 0.928551 0.0666207
54 1 0.863856 0.923396 0.223594
351 2 0.709066 0.571079 0.465209
21 1 0.591975 0.578339 0.487379
28 1 0.588743 0.622136 0.267521
153 1 0.714256 0.613699 0.344307
360 2 0.599256 0.656166 0.386349
129 1 0.732705 0.70198 0.462986
179 1 0.865857 0.557463 0.252315
203 1 0.816693 0.501006 0.405207
318 2 0.974216 0.647519 0.298714
142 1 0.860111 0.658188 0.365387
143 1 0.97267 0.72107 0.437331
275 1 0.993578 0.542999 0.396496
118 1 0.504662 0.757034 0.272768
260 1 0.671166 0.859721 0.462308
270 1 0.650819 0.76394 0.32284
160 1 0.702196 0.915902 0.322011
257 1 0.546749 0.89171 0.352174
322 2 0.937567 0.877867 0.362557
44 1 0.947548 0.775515 0.289393
254 1 0.849186 0.893058 0.456713
90 1 0.802057 0.808174 0.354121
225 1 0.718308 0.621539 0.59767
248 1 0.58385 0.639097 0.68376
107 1 0.720875 0.574124 0.74678
321 2 0.729484 0.729828 0.738342
314 2 0.652662 0.516054 0.636441
232 1 0.597441 0.736912 0.505268
128 1 0.835585 0.667855 0.671833
92 1 0.862642 0.598021 0.508151
208 1 0.947706 0.57849 0.71924
236 1 0.842368 0.517729 0.632787
246 1 0.860856 0.742113 0.539284
199 1 0.981493 0.518921 0.563033
11 1 0.659592 0.996744 0.670016
344 2 0.633189 0.967942 0.540301
19 1 0.618106 0.783706 0.731512
62 1 0.721312 0.766609 0.609919
42 1 0.58101 0.868694 0.592489
327 2 0.716411 0.856304 0.684584
171 1 0.501048 0.954934 0.712089
88 1 0.81232 0.989008 0.697827
4 1 0.923364 0.958493 0.581321
76 1 0.853025 0.835515 0.665258
7 1 0.755351 0.921059 0.573403
335 2 0.967891 0.78394 0.638746
218 1 0.993745 0.842563 0.515939
6 1 0.630689 0.64364 0.997373
192 1 0.655926 0.66385 0.850069
229 1 0.72686 0.542753 0.908018
23 1 0.561526 0.502063 0.774972
316 2 0.736741 0.672592 0.945369
339 2 0.560679 0.727223 0.918489
261 1 0.53402 0.556977 0.932931
74 1 0.817576 0.670272 0.835895
292 2 0.846006 0.568579 0.927124
287 1 0.95561 0.610719 0.871816
194 1 0.834433 0.505931 0.79646
40 1 0.86946 0.6669 0.999849
26 1 0.654702 0.914513 0.790455
124 1 0.650359 0.814738 0.908089
230 1 0.578562 0.966137 0.944233
207 1 0.513631 0.835391 0.826281
177 1 0.969963 0.878368 0.998734
304 2 0.880671 0.756224 0.76156
59 1 0.943765 0.768911 0.896458
146 1 0.972884 0.858004 0.761289
249 1 0.754939 0.978017 0.925046
243 1 0.884396 0.915065 0.876759
151 1 0.779217 0.824084 0.797603
310 2 0.790651 0.943633 0.806088
307 2 0.95002 0.985816 0.802221
282 1 0.808887 0.79489 0.949477
ITEM: TIMESTEP
60000
ITEM: NUMBER OF ATOMS
360
ITEM: BOX BOUNDS pp pp pp
0.0000000000000000e+00 6.6943295008216896e+00
0.0000000000000000e+00 6.6943295008216896e+00
0.0000000000000000e+00 6.6943295008216896e+00
ITEM: ATOMS id type xs ys zs
195 1 0.056975 0.143816 0.113358
353 2 0.164678 0.282242 0.161363
239 1 0.198198 0.212887 0.270453
106 1 0.192171 0.134986 0.0497959
322 2 0.183567 0.11415 0.183564
301 2 0.480502 0.430311 0.195935
289 2 0.309499 0.285947 0.256441
84 1 0.459213 0.201454 0.0900079
346 2 0.315444 0.106339 0.0643208
12 1 0.311366 0.204293 0.15166
245 1 0.432756 0.0768491 0.175529
91 1 0.0502206 0.246632 0.279291
204 1 0.103429 0.376926 0.104353
89 1 0.415028 0.0382526 0.0386148
14 1 0.13807 0.00617401 0.122243
69 1 0.385552 0.480412 0.109707
265 1 0.239029 0.37246 0.200378
16 1 0.229455 0.294685 0.0552657
227 1 0.396213 0.340328 0.169693
283 1 0.343825 0.407648 0.420175
183 1 0.363801 0.455388 0.267666
117 1 0.279174 0.0250637 0.191553
43 1 0.174021 0.155436 0.409597
22 1 0.0697554 0.0852467 0.258419
24 1 0.47782 0.275524 0.437066
161 1 0.471078 0.370581 0.319218
13 1 0.0195137 0.359384 0.361292
201 1 0.421193 0.210911 0.282065
284 1 0.243322 0.46793 0.0717774
63 1 0.316686 0.109349 0.309681
272 1 0.120217 0.489771 0.353486
181 1 0.316538 0.259004 0.376827
187 1 0.442695 0.117315 0.435956
317 2 0.109524 0.375348 0.232275
188 1 0.0652897 0.250894 0.47094
131 1 0.198693 0.0115016 0.331334
110 1 0.176117 0.343353 0.360912
324 2 0.480583 0.0916548 0.322134
315 2 0.234119 0.4472 0.325943
338 2 0.457598 0.400927 0.472508
104 1 0.306852 0.126084 0.492195
109 1 0.198389 0.155414 0.751099
65 1 0.190901 0.116679 0.591057
20 1 0.00915482 0.194473 0.742767
318 2 0.0910452 0.499073 0.734171
164 1 0.0638296 0.0717233 0.675527
293 2 0.306438 0.430785 0.884993
138 1 0.340342 0.215962 0.678643
285 1 0.431189 0.0676082 0.607815
163 1 0.464963 0.143586 0.73593
277 1 0.448387 0.125374 0.91426
50 1 0.107133 0.275138 0.971257
101 1 0.354279 0.266125 0.530324
95 1 0.119325 0.26731 0.635542
303 2 0.133077 0.400736 0.622602
130 1 0.190185 0.410284 0.784172
291 2 0.231804 0.278302 0.745532
209 1 0.0579239 0.37575 0.730931
170 1 0.20819 0.487554 0.914646
200 1 0.421621 0.281339 0.902534
328 2 0.400011 0.348885 0.653986
352 2 0.297577 0.4573 0.682063
273 1 0.249769 0.346618 0.641228
213 1 0.436705 0.467423 0.703346
36 1 0.326939 0.351283 0.77783
244 1 0.36209 0.425415 0.566167
334 2 0.179845 0.393699 0.996356
340 2 0.228939 0.0548966 0.815148
286 1 0.0272333 0.12987 0.935237
111 1 0.198838 0.170634 0.898725
205 1 0.111998 0.0615402 0.818325
150 1 0.0881998 0.410602 0.890291
61 1 0.355723 0.382041 0.997496
252 1 0.469084 0.303595 0.752108
147 1 0.0502601 0.491934 0.612811
125 1 0.313091 0.0602578 0.708089
305 2 0.392985 0.0495201 0.811296
9 1 0.339633 0.172883 0.826643
278 1 0.306177 0.0508602 0.935043
85 1 0.212636 0.487815 0.591081
217 1 0.43293 0.424847 0.866288
10 1 0.242808 0.314139 0.908332
100 1 0.134467 0.276224 0.811399
302 2 0.249624 0.379112 0.516948
155 1 0.17577 0.00277656 0.947532
240 1 0.205996 0.266313 0.510442
56 1 0.488852 0.21732 0.607765
35 1 0.0637514 0.0986698 0.508628
281 1 0.330368 0.203928 0.98798
145 1 0.120449 0.410663 0.500408
174 1 0.214669 0.635761 0.152578
44 1 0.111243 0.736967 0.0565753
39 1 0.0590304 0.746395 0.197521
312 2 0.453271 0.918005 0.0219089
97 1 0.068136 0.607419 0.131732
355 2 0.295699 0.607254 0.0616458
118 1 0.424399 0.667549 0.0533688
157 1 0.377312 0.59972 0.197737
264 1 0.281643 0.734324 0.0593878
120 1 0.357221 0.747527 0.187665
57 1 0.0549844 0.868273 0.122015
167 1 0.21807 0.846299 0.133463
33 1 0.133423 0.902792 0.254207
224 1 0.0883563 0.504155 0.0104375
175 1 0.285168 0.883334 0.281806
154 1 0.365995 0.835986 0.441184
251 1 0.192956 0.850139 0.399023
234 1 0.382352 0.909106 0.140368
232 1 0.396568 0.67058 0.497002
276 1 0.402554 0.98611 0.290144
275 1 0.119085 0.634789 0.297105
299 2 0.439814 0.996436 0.486995
269 1 0.214249 0.748213 0.26012
143 1 0.053237 0.706187 0.414863
4 1 0.061969 0.853703 0.462635
126 1 0.446318 0.833643 0.274192
325 2 0.475308 0.548314 0.252021
18 1 0.261286 0.565841 0.300368
248 1 0.423161 0.555205 0.377929
66 1 0.381868 0.70419 0.332825
162 1 0.230395 0.708439 0.413044
313 2 0.0726592 0.803755 0.337042
32 1 0.058419 0.990206 0.387249
219 1 0.328798 0.980608 0.429216
211 1 0.27781 0.970472 0.0573725
288 1 0.176725 0.987747 0.480472
58 1 0.0944692 0.577959 0.492787
52 1 0.0414556 0.975173 0.0164243
3 1 0.472958 0.796923 0.1035
119 1 0.238024 0.526395 0.443618
295 2 0.274322 0.521154 0.174299
247 1 0.143133 0.502434 0.211186
344 2 0.343577 0.54624 0.49331
336 2 0.131199 0.584105 0.608528
241 1 0.195554 0.56935 0.716761
197 1 0.496501 0.828235 0.927256
121 1 0.0979872 0.720154 0.572589
135 1 0.0119984 0.844829 0.962209
11 1 0.293923 0.977308 0.57887
358 2 0.27464 0.92747 0.93675
196 1 0.412796 0.95585 0.908272
257 1 0.241694 0.649091 0.542964
189 1 0.34336 0.571771 0.619844
134 1 0.353522 0.697553 0.740533
140 1 0.483851 0.612004 0.668909
280 1 0.228381 0.725939 0.663615
67 1 0.0641153 0.794056 0.719907
357 2 0.0228697 0.817498 0.840691
105 1 0.286019 0.950995 0.811596
331 2 0.175962 0.856367 0.72987
208 1 0.052711 0.62823 0.696226
116 1 0.234233 0.81938 0.545284
71 1 0.372989 0.781657 0.603506
64 1 0.439215 0.912059 0.569441
171 1 0.431409 0.93535 0.743596
139 1 0.29036 0.868042 0.687079
173 1 0.120856 0.727591 0.894168
212 1 0.0853075 0.586634 0.838444
304 2 0.143483 0.710114 0.763259
332 2 0.248143 0.72701 0.944909
76 1 0.191421 0.984191 0.692721
103 1 0.237375 0.639334 0.843187
220 1 0.377979 0.727302 0.894463
233 1 0.340854 0.553676 0.945936
30 1 0.339983 0.54066 0.793049
83 1 0.473522 0.616656 0.831844
296 2 0.0354528 0.988816 0.878988
258 1 0.0879514 0.902303 0.602524
152 1 0.260763 0.80946 0.843765
137 1 0.130608 0.895709 0.840638
356 2 0.385769 0.843382 0.83605
207 1 0.491644 0.778272 0.782968
169 1 0.48744 0.52979 0.523701
360 2 0.478542 0.776518 0.501481
38 1 0.188379 0.845475 0.977027
59 1 0.00328798 0.943669 0.735703
229 1 0.485753 0.546616 0.98273
327 2 0.498761 0.837872 0.65729
53 1 0.184726 0.614564 0.987219
5 1 0.34978 0.848814 0.998865
158 1 0.667915 0.387094 0.493508
80 1 0.572622 0.0915663 0.0739688
41 1 0.687377 0.231203 0.0859649
267 1 0.592125 0.0979389 0.22396
249 1 0.772322 0.0149442 0.0503408
308 2 0.905232 0.132969 0.11138
48 1 0.970596 0.476716 0.456255
132 1 0.934125 0.139742 0.233568
72 1 0.926144 0.224627 0.00378588
326 2 0.624298 0.459403 0.135171
94 1 0.563405 0.293054 0.191826
25 1 0.694175 0.360633 0.17221
70 1 0.669717 0.371235 0.030462
266 1 0.589589 0.471201 0.253316
268 1 0.885906 0.269878 0.467124
99 1 0.829727 0.243636 0.136181
87 1 0.86034 0.478958 0.336123
102 1 0.844136 0.404914 0.159369
214 1 0.98566 0.300307 0.134918
198 1 0.78707 0.350805 0.39723
274 1 0.57523 0.205236 0.327504
216 1 0.589288 0.0570023 0.377755
347 2 0.689155 0.118633 0.346688
263 1 0.880139 0.109851 0.495826
226 1 0.698892 0.226314 0.422151
141 1 0.979975 0.165007 0.384035
337 2 0.875851 0.396017 0.463875
160 1 0.820969 0.148444 0.365692
178 1 0.820578 0.364052 0.0203815
221 1 0.904634 0.0114008 0.335962
86 1 0.769793 0.100921 0.200333
133 1 0.891009 0.27182 0.29958
235 1 0.982955 0.425367 0.233239
185 1 0.722168 0.241754 0.264549
114 1 0.5507 0.466508 0.40477
31 1 0.639401 0.353568 0.345261
49 1 0.523922 0.407109 0.0870062
290 2 0.744079 0.463588 0.0767002
342 2 0.757766 0.417407 0.276392
27 1 0.714875 0.0870137 0.483949
127 1 0.904237 0.0568794 0.000972257
168 1 0.786705 0.162361 0.00361031
26 1 0.603723 0.113169 0.642477
298 2 0.57576 0.22713 0.69993
122 1 0.695424 0.224309 0.755658
343 2 0.720608 0.139498 0.649771
144 1 0.967415 0.199789 0.589262
359 2 0.981157 0.392337 0.822755
88 1 0.734446 0.0223245 0.624098
309 2 0.823156 0.0716864 0.760461
47 1 0.821205 0.206962 0.626071
96 1 0.844763 0.188117 0.774905
8 1 0.895886 0.0698429 0.654947
351 2 0.820003 0.495155 0.736974
113 1 0.531884 0.392804 0.581884
159 1 0.673452 0.251917 0.595585
335 2 0.662811 0.384157 0.626111
294 2 0.574767 0.297418 0.510273
311 2 0.511067 0.0343284 0.699745
199 1 0.898904 0.474014 0.623036
237 1 0.813013 0.353324 0.576367
82 1 0.914353 0.333382 0.718508
202 1 0.768209 0.349656 0.72503
243 1 0.693894 0.0581926 0.761861
230 1 0.531228 0.0374314 0.826994
206 1 0.574253 0.192491 0.829811
98 1 0.629325 0.110198 0.941688
34 1 0.566361 0.000987726 0.530395
177 1 0.792953 0.0370728 0.878774
321 2 0.741869 0.154202 0.876515
172 1 0.938524 0.0619712 0.811745
310 2 0.918757 0.160381 0.889146
93 1 0.826595 0.285073 0.889072
68 1 0.861745 0.424251 0.850719
79 1 0.607394 0.35463 0.730315
136 1 0.684314 0.254398 0.919414
314 2 0.578608 0.305937 0.86397
215 1 0.552525 0.414918 0.941921
37 1 0.554011 0.254635 0.991443
180 1 0.971239 0.357751 0.554625
45 1 0.685537 0.403446 0.874573
236 1 0.742604 0.476703 0.628959
256 1 0.977811 0.278962 0.866819
261 1 0.562573 0.487329 0.789077
354 2 0.781063 0.189357 0.516598
184 1 0.981543 0.388886 0.994193
250 1 0.582445 0.174146 0.501144
306 2 0.866456 0.477539 0.992202
51 1 0.64662 0.537153 0.0333651
349 2 0.631319 0.595824 0.152453
271 1 0.57114 0.691926 0.0133452
165 1 0.69534 0.703343 0.103399
148 1 0.512407 0.561447 0.132846
77 1 0.736175 0.524852 0.1924
350 2 0.555561 0.613857 0.452046
28 1 0.816658 0.584996 0.0661112
270 1 0.915113 0.658018 0.163954
142 1 0.811015 0.529949 0.470232
341 2 0.87148 0.527277 0.200908
92 1 0.873249 0.825816 0.465989
282 1 0.517819 0.946791 0.128978
166 1 0.748381 0.853587 0.0865267
6 1 0.608344 0.849985 0.0346089
223 1 0.608476 0.820254 0.184345
316 2 0.718074 0.880217 0.229972
153 1 0.955658 0.506663 0.0836672
190 1 0.843821 0.734437 0.0500457
78 1 0.896168 0.82339 0.156086
262 1 0.89264 0.913448 0.044934
90 1 0.77044 0.769753 0.212795
54 1 0.822886 0.860355 0.324114
255 1 0.813782 0.955316 0.20269
300 2 0.95624 0.908946 0.395506
348 2 0.946475 0.723612 0.47594
179 1 0.933477 0.743816 0.315442
7 1 0.804548 0.965407 0.456231
29 1 0.569774 0.588265 0.329056
129 1 0.668108 0.659653 0.247405
259 1 0.677178 0.971681 0.155034
260 1 0.666782 0.683455 0.462342
329 2 0.723428 0.626427 0.35921
176 1 0.655825 0.902338 0.419019
253 1 0.815357 0.630301 0.268743
73 1 0.93395 0.622819 0.408484
203 1 0.803132 0.713982 0.394652
330 2 0.744387 0.814301 0.41855
186 1 0.659914 0.792884 0.327165
254 1 0.983904 0.883292 0.274642
156 1 0.571711 0.935316 0.27388
21 1 0.653353 0.534566 0.480191
60 1 0.522994 0.730711 0.389313
75 1 0.985951 0.570133 0.275532
323 2 0.983793 0.764123 0.0902619
112 1 0.515129 0.686305 0.211089
17 1 0.705665 0.500019 0.34707
42 1 0.714368 0.992209 0.307551
2 1 0.508 0.920888 0.406276
182 1 0.974491 0.997186 0.162044
62 1 0.714282 0.624352 0.663702
123 1 0.563569 0.703947 0.581999
297 2 0.690171 0.734323 0.594852
333 2 0.698758 0.963409 0.520317
218 1 0.957071 0.608521 0.555932
225 1 0.820665 0.681488 0.546946
292 2 0.869868 0.632704 0.951833
192 1 0.954057 0.796773 0.585051
319 2 0.818194 0.565576 0.586118
242 1 0.880477 0.626161 0.686016
193 1 0.578728 0.840684 0.540584
345 2 0.748815 0.785188 0.977307
151 1 0.630297 0.81146 0.680248
108 1 0.598363 0.955883 0.667545
149 1 0.744088 0.829086 0.540774
307 2 0.735582 0.899748 0.667892
107 1 0.813262 0.784555 0.672224
320 2 0.654767 0.986155 0.873449
128 1 0.852554 0.919543 0.592823
222 1 0.970698 0.518135 0.923394
194 1 0.76203 0.512077 0.935466
246 1 0.605462 0.666789 0.774175
23 1 0.614971 0.589329 0.901281
231 1 0.758766 0.696966 0.796231
15 1 0.909503 0.939629 0.89037
1 1 0.701739 0.530012 0.783886
124 1 0.7398 0.654014 0.950849
191 1 0.971724 0.700876 0.841281
287 1 0.86038 0.588964 0.840847
339 2 0.94462 0.725528 0.697426
46 1 0.605668 0.517196 0.642377
146 1 0.921979 0.823034 0.78061
228 1 0.848314 0.956042 0.750385
238 1 0.757112 0.858558 0.80112
74 1 0.713746 0.900681 0.942686
40 1 0.84503 0.766686 0.908788
19 1 0.652963 0.775443 0.890968
55 1 0.599185 0.893279 0.809955
115 1 0.559616 0.969772 0.958469
81 1 0.968339 0.510872 0.768398
210 1 0.984588 0.674175 0.999181
279 1 0.973718 0.969759 0.512202
ITEM: TIMESTEP
120000
ITEM: NUMBER OF ATOMS
360
ITEM: BOX BOUNDS pp pp pp
0.0000000000000000e+00 6.6943295008216896e+00
0.0000000000000000e+00 6.6943295008216896e+00
0.0000000000000000e+00 6.6943295008216896e+00
ITEM: ATOMS id type xs ys zs
214 1 0.0581746 0.130006 0.237888
50 1 0.138658 0.209366 0.0414175
12 1 0.109357 0.0650216 0.0808392
265 1 0.201206 0.170567 0.183661
14 1 0.172252 0.029451 0.231445
321 2 0.00296282 0.0359405 0.150446
130 1 0.273024 0.153383 0.0545617
289 2 0.315014 0.0990456 0.174024
227 1 0.410955 0.0979463 0.0981713
293 2 0.335448 0.0342469 0.0073699
201 1 0.347242 0.228576 0.189125
322 2 0.190991 0.286453 0.1437
247 1 0.185091 0.408659 0.176485
69 1 0.246775 0.316111 0.0262951
22 1 0.0798952 0.352555 0.0643814
133 1 0.0698173 0.295976 0.218489
319 2 0.0739169 0.433102 0.22479
174 1 0.231729 0.485563 0.0594357
301 2 0.351002 0.433444 0.0595565
110 1 0.337611 0.377574 0.171021
25 1 0.457598 0.448963 0.110192
70 1 0.416329 0.254361 0.0534017
141 1 0.119411 0.0765409 0.384135
91 1 0.140597 0.225444 0.337675
144 1 0.063471 0.219023 0.459748
299 2 0.287255 0.138075 0.427053
216 1 0.388707 0.0535308 0.401255
43 1 0.286194 0.106734 0.308527
63 1 0.387215 0.236668 0.356858
84 1 0.433881 0.106387 0.251384
96 1 0.133759 0.446907 0.488827
85 1 0.111859 0.38105 0.344875
302 2 0.154681 0.320015 0.48899
303 2 0.235132 0.437451 0.405898
114 1 0.455503 0.354911 0.259796
119 1 0.262513 0.477561 0.278549
239 1 0.253183 0.309004 0.282215
283 1 0.366674 0.404019 0.392962
188 1 0.25706 0.250127 0.462555
172 1 0.0486023 0.196301 0.607577
35 1 0.199705 0.101297 0.510399
76 1 0.186773 0.137227 0.698433
8 1 0.0458909 0.0654369 0.519782
258 1 0.0431052 0.105198 0.740417
116 1 0.115047 0.0153428 0.640784
109 1 0.343538 0.132975 0.723835
163 1 0.437183 0.0411992 0.605147
104 1 0.325537 0.148398 0.56554
164 1 0.266989 0.00224214 0.656805
356 2 0.375106 0.0141651 0.722272
187 1 0.46204 0.159327 0.507768
209 1 0.0637195 0.49497 0.644746
95 1 0.206656 0.25671 0.603799
317 2 0.0502587 0.397692 0.730739
170 1 0.0701923 0.348351 0.589218
138 1 0.208997 0.390978 0.679278
20 1 0.101574 0.287772 0.746185
240 1 0.276381 0.390335 0.527983
273 1 0.34182 0.458081 0.662846
65 1 0.338011 0.299174 0.661561
101 1 0.473962 0.368317 0.70203
24 1 0.394945 0.284002 0.511669
275 1 0.465667 0.44175 0.523248
340 2 0.140699 0.171353 0.810876
10 1 0.229644 0.151184 0.907756
177 1 0.0786167 0.112731 0.915892
205 1 0.158143 0.0389004 0.802759
334 2 0.0463525 0.243418 0.963383
100 1 0.202653 0.0194268 0.96646
111 1 0.427783 0.244507 0.781356
155 1 0.316966 0.0250263 0.834881
206 1 0.464531 0.086016 0.801399
310 2 0.354494 0.150574 0.854248
277 1 0.430208 0.0884993 0.946681
281 1 0.491172 0.221765 0.905307
217 1 0.109797 0.48203 0.965871
278 1 0.157187 0.299168 0.908127
61 1 0.12937 0.436366 0.827964
16 1 0.0119425 0.361007 0.892674
215 1 0.254558 0.420246 0.927834
200 1 0.400735 0.40024 0.955917
36 1 0.350176 0.379293 0.805047
9 1 0.341263 0.270068 0.918072
103 1 0.258623 0.253031 0.78558
315 2 0.169359 0.623075 0.106319
120 1 0.0483019 0.653913 0.147499
251 1 0.222814 0.720979 0.175758
272 1 0.146446 0.561318 0.221019
269 1 0.0879035 0.626698 0.00650083
148 1 0.225326 0.69053 0.0253222
235 1 0.0623075 0.506423 0.111447
143 1 0.316314 0.577106 0.166381
161 1 0.458059 0.595396 0.182376
3 1 0.371895 0.715646 0.238158
49 1 0.367711 0.549319 0.0283112
261 1 0.499753 0.638282 0.0200342
44 1 0.0889996 0.772422 0.0365707
175 1 0.23055 0.885686 0.215861
313 2 0.120815 0.807518 0.174758
182 1 0.232568 0.854314 0.0317331
195 1 0.0987413 0.916808 0.113539
347 2 0.4833 0.975574 0.192041
183 1 0.268049 0.995435 0.104149
358 2 0.339283 0.856651 0.176616
89 1 0.353013 0.752811 0.0898906
282 1 0.404904 0.931469 0.0905761
117 1 0.343557 0.964082 0.241466
257 1 0.171587 0.705858 0.446786
348 2 0.0454171 0.650498 0.420311
97 1 0.124815 0.699385 0.299196
147 1 0.147578 0.563542 0.374748
157 1 0.469978 0.744357 0.355224
352 2 0.419804 0.516409 0.426812
349 2 0.409739 0.625045 0.315109
58 1 0.27881 0.620569 0.30613
18 1 0.416097 0.506426 0.29099
162 1 0.352098 0.685447 0.44126
241 1 0.286406 0.544932 0.431719
244 1 0.49813 0.615196 0.448896
4 1 0.0443966 0.789758 0.443054
336 2 0.174519 0.84323 0.439696
254 1 0.0859562 0.842043 0.287263
131 1 0.189364 0.93268 0.357259
57 1 0.0259551 0.943896 0.407433
127 1 0.0115021 0.979524 0.264653
126 1 0.367657 0.886494 0.374115
156 1 0.470801 0.921253 0.477698
245 1 0.496732 0.98676 0.323559
234 1 0.454199 0.854557 0.251086
276 1 0.263296 0.779409 0.351888
32 1 0.291996 0.98258 0.480328
208 1 0.088989 0.62203 0.544722
30 1 0.132591 0.562502 0.748065
152 1 0.148822 0.709171 0.689693
81 1 0.206778 0.524217 0.603021
331 2 0.237184 0.606879 0.682692
314 2 0.0231052 0.500463 0.521282
339 2 0.0318339 0.619972 0.674185
140 1 0.260379 0.664295 0.563675
79 1 0.38926 0.574197 0.545436
220 1 0.36922 0.623251 0.700335
316 2 0.384096 0.704855 0.584352
297 2 0.0567303 0.801868 0.676374
134 1 0.137271 0.800542 0.570854
11 1 0.163363 0.874747 0.709472
121 1 0.0120826 0.884281 0.576524
263 1 0.145604 0.951801 0.50953
360 2 0.252506 0.872948 0.610183
71 1 0.309081 0.764858 0.672584
189 1 0.47923 0.793625 0.686548
154 1 0.38649 0.909734 0.628962
232 1 0.473107 0.773451 0.515458
125 1 0.473873 0.949959 0.740592
288 1 0.312006 0.815015 0.504576
295 2 0.104302 0.610307 0.881243
264 1 0.154099 0.726283 0.895748
229 1 0.230968 0.577777 0.930768
105 1 0.245769 0.663266 0.791266
137 1 0.0234236 0.678812 0.781024
355 2 0.365513 0.724313 0.969006
136 1 0.43355 0.505242 0.812129
327 2 0.384999 0.738516 0.769847
233 1 0.378876 0.645661 0.873674
213 1 0.279456 0.521119 0.794168
328 2 0.340063 0.507757 0.903036
351 2 0.494212 0.592042 0.898815
279 1 0.0296307 0.953771 0.75724
106 1 0.0596544 0.94694 0.912651
345 2 0.139608 0.856829 0.945428
38 1 0.0504451 0.821126 0.827028
332 2 0.196758 0.795934 0.800155
167 1 0.202296 0.913849 0.850654
118 1 0.291121 0.787361 0.884965
353 2 0.443398 0.969523 0.868309