ITEM: TIMESTEP
0
ITEM: NUMBER OF ATOMS
360
ITEM: BOX BOUNDS pp pp pp
0.0000000000000000e+00 6.6943295008216896e+00
0.0000000000000000e+00 6.6943295008216896e+00
0.0000000000000000e+00 6.6943295008216896e+00
ITEM: ATOMS id type xs ys zs
198 1 0.139717 0.18431 0.190678
132 1 0.117843 0.0340517 0.0992233
259 1 0.00698166 0.0835843 0.238263
255 1 0.221004 0.157084 0.021872
58 1 8.14567e-05 0.241218 0.167229
299 2 0.0854057 0.139554 0.00796169
112 1 0.406837 0.13797 0.20539
194 1 0.264305 0.090102 0.153632
163 1 0.339693 0.22201 0.0963611
109 1 0.279615 0.0126378 0.0265242
94 1 0.488706 0.177126 0.0773866
64 1 0.412616 0.00272871 0.103288
182 1 0.493336 0.0040183 0.249382
92 1 0.00978952 0.395558 0.103941
360 2 0.217372 0.270151 0.137992
202 1 0.109024 0.256041 0.0585279
252 1 0.121053 0.33645 0.192851
332 2 0.192082 0.401814 0.0883715
16 1 0.0686042 0.474352 0.234132
236 1 0.22277 0.493798 0.176611
221 1 0.25392 0.310534 0.0090743
142 1 0.284254 0.271375 0.24335
76 1 0.471493 0.431865 0.186511
331 2 0.430984 0.316763 0.0746734
7 1 0.323102 0.370753 0.131795
251 1 0.452765 0.283397 0.197569
65 1 0.0836601 0.212206 0.485585
203 1 0.161751 0.0218395 0.259798
88 1 0.0962485 0.100094 0.372532
340 2 0.219308 0.195906 0.409979
222 1 0.00574309 0.0181032 0.487331
41 1 0.360658 0.196196 0.49937
349 2 0.491632 0.146924 0.307904
134 1 0.250273 0.0801505 0.458052
247 1 0.394613 0.0747909 0.380801
160 1 0.271126 0.1318 0.313903
141 1 0.405805 0.230792 0.340052
249 1 0.0594621 0.494683 0.386245
245 1 0.138845 0.365595 0.455258
263 1 0.199291 0.432973 0.311384
161 1 0.149598 0.270979 0.331097
345 2 0.0665866 0.375673 0.321916
63 1 0.430284 0.343588 0.448796
38 1 0.279243 0.442731 0.483193
34 1 0.370543 0.404092 0.304013
122 1 0.285247 0.309547 0.400483
329 2 0.440014 0.473302 0.402423
9 1 0.122056 0.0876899 0.572662
342 2 0.0731848 0.121736 0.709765
176 1 0.127696 0.230099 0.655462
14 1 0.283299 0.13358 0.619927
239 1 0.411477 0.0725973 0.706502
116 1 0.428419 0.0660184 0.527731
93 1 0.414809 0.23152 0.641158
327 2 0.478746 0.22997 0.532689
310 2 0.282445 0.0137988 0.563098
32 1 0.232243 0.264535 0.546017
211 1 0.0440076 0.348108 0.571714
253 1 0.189438 0.390355 0.612116
298 2 0.0613963 0.33104 0.698995
189 1 0.283047 0.270279 0.729568
12 1 0.43395 0.359574 0.728029
87 1 0.279709 0.440956 0.730655
75 1 0.357113 0.37375 0.593327
285 1 0.199537 0.129051 0.758253
85 1 0.16813 0.0579396 0.913579
119 1 0.136075 0.221523 0.90465
272 1 0.0396189 0.0556277 0.821792
59 1 0.0306529 0.234542 0.768925
164 1 0.474834 0.0449442 0.839332
315 2 0.324651 0.148433 0.758381
254 1 0.292497 0.198212 0.883065
166 1 0.424329 0.219598 0.815559
281 1 0.319876 0.0429875 0.850568
80 1 0.389513 0.113176 0.983385
22 1 0.114591 0.37883 0.958333
102 1 0.0200687 0.396445 0.806207
313 2 0.0240201 0.28987 0.890463
225 1 0.194335 0.461663 0.851078
323 2 0.228049 0.333622 0.88935
237 1 0.153024 0.328559 0.781545
157 1 0.419737 0.257996 0.958109
322 2 0.448584 0.416429 0.858847
73 1 0.391677 0.406866 0.989473
267 1 0.346867 0.345228 0.85362
149 1 0.25625 0.474498 0.987049
173 1 0.354333 0.497565 0.856719
246 1 0.110983 0.62887 0.180198
199 1 0.224019 0.624363 0.0763382
330 2 0.216126 0.686663 0.213464
156 1 0.065207 0.651791 0.0335212
356 2 0.0108567 0.539465 0.149244
82 1 0.112744 0.505966 0.0637532
312 2 0.498564 0.513385 0.0559654
283 1 0.32143 0.621095 0.224818
1 1 0.366913 0.691678 0.0841567
124 1 0.366776 0.533903 0.0976159
318 2 0.452774 0.735351 0.165032
314 2 0.35369 0.506555 0.227376
234 1 0.157462 0.778477 0.110392
209 1 0.0947698 0.89501 0.20137
111 1 0.231271 0.934741 0.160233
174 1 0.00631612 0.875739 0.0768816
334 2 0.00434148 0.980866 0.151855
257 1 0.17228 0.904049 0.0212759
169 1 0.42361 0.866404 0.190883
159 1 0.296251 0.789198 0.223077
276 1 0.319337 0.865308 0.05699
289 2 0.451682 0.869483 0.0654005
155 1 0.167781 0.588304 0.307799
183 1 0.100743 0.635192 0.444987
25 1 0.011215 0.637982 0.309812
324 2 0.197323 0.548418 0.426272
210 1 0.30909 0.549425 0.371031
143 1 0.451714 0.551863 0.301077
84 1 0.440413 0.723031 0.28649
191 1 0.274176 0.70097 0.364659
218 1 0.414053 0.652065 0.44142
291 2 0.00606808 0.828066 0.282971
212 1 0.129227 0.764055 0.278403
168 1 0.0175185 0.766144 0.391066
33 1 0.187039 0.808259 0.445854
193 1 0.0729531 0.935447 0.362206
127 1 0.213728 0.88677 0.308195
10 1 0.159311 0.962281 0.497143
355 2 0.245398 0.995473 0.357785
243 1 0.0496453 0.869059 0.49114
140 1 0.324471 0.946205 0.451763
335 2 0.446777 0.779307 0.424355
118 1 0.335603 0.997028 0.262539
242 1 0.47935 0.894931 0.483796
27 1 0.362895 0.843741 0.343764
359 2 0.428963 0.951243 0.365288
302 2 0.173274 0.620147 0.607833
98 1 0.128858 0.683489 0.730648
145 1 0.154189 0.512785 0.533789
227 1 0.0355285 0.601072 0.600048
6 1 0.114919 0.736961 0.559878
24 1 0.127967 0.515997 0.686722
126 1 0.243575 0.64113 0.503645
69 1 0.261599 0.71824 0.648677
223 1 0.423061 0.516092 0.691927
40 1 0.281304 0.537494 0.614439
96 1 0.387681 0.653282 0.587452
353 2 0.360696 0.644472 0.718941
46 1 0.496275 0.641813 0.720117
48 1 0.419304 0.507508 0.512436
297 2 0.0670678 0.955374 0.581771
72 1 0.0484047 0.848782 0.652852
205 1 0.22197 0.860374 0.593741
220 1 0.124738 0.989808 0.6924
135 1 0.275999 0.986519 0.700686
348 2 0.481032 0.982891 0.634574
357 2 0.30531 0.857746 0.711896
262 1 0.398807 0.772237 0.707228
274 1 0.379561 0.890138 0.608213
195 1 0.336138 0.778262 0.507772
30 1 0.496387 0.766441 0.572823
339 2 0.113748 0.566894 0.801923
288 1 0.136799 0.654434 0.891782
233 1 0.0608413 0.522885 0.907785
351 2 0.161032 0.560294 0.962524
171 1 0.237732 0.748467 0.979346
172 1 0.253577 0.5928 0.781868
78 1 0.26227 0.73669 0.825094
108 1 0.282216 0.615215 0.927736
49 1 0.418459 0.678077 0.84675
179 1 0.428597 0.580472 0.964941
296 2 0.466563 0.558007 0.820992
230 1 0.173991 0.854247 0.757803
213 1 0.0775401 0.78309 0.965126
321 2 0.167667 0.801663 0.875232
190 1 0.107385 0.923953 0.871586
226 1 0.0408395 0.777922 0.804109
290 2 0.201647 0.978689 0.807194
277 1 0.0247938 0.997205 0.992702
270 1 0.278724 0.890375 0.876842
232 1 0.411589 0.921561 0.766113
146 1 0.411418 0.772112 0.957948
105 1 0.426296 0.928215 0.93966
129 1 0.632678 0.0515404 0.133757
67 1 0.598299 0.191685 0.177072
293 2 0.510593 0.0902803 0.156548
45 1 0.745206 0.154511 0.139528
319 2 0.761096 0.0420083 0.0785835
341 2 0.88454 0.183395 0.115121
139 1 0.875509 0.0295913 0.150208
128 1 0.863025 0.15704 0.236593
97 1 0.987392 0.11865 0.08779
43 1 0.63658 0.256712 0.0383536
308 2 0.702872 0.279175 0.139569
258 1 0.607383 0.359203 0.20228
167 1 0.53786 0.374243 0.0589641
144 1 0.738147 0.400324 0.129938
162 1 0.88266 0.463928 0.175937
120 1 0.839733 0.294459 0.154114
265 1 0.782373 0.267447 0.00447686
21 1 0.952914 0.285416 0.0196564
66 1 0.548564 0.00889173 0.399193
165 1 0.698612 0.0170892 0.42755
266 1 0.626684 0.108218 0.300697
325 2 0.661138 0.219738 0.390232
20 1 0.711729 0.247457 0.275038
278 1 0.507706 0.16143 0.434238
17 1 0.655348 0.142264 0.492565
219 1 0.84492 0.00602095 0.47258
185 1 0.986332 0.210101 0.338898
113 1 0.76506 0.0495935 0.262652
125 1 0.912916 0.166302 0.483891
13 1 0.922617 0.06538 0.360265
197 1 0.772429 0.138653 0.382273
47 1 0.749437 0.261588 0.484913
19 1 0.671809 0.376501 0.375207
196 1 0.558645 0.438616 0.476778
18 1 0.564496 0.259347 0.315107
106 1 0.529505 0.42001 0.323158
208 1 0.59266 0.288517 0.476534
81 1 0.945352 0.34274 0.267474
95 1 0.988927 0.347878 0.4151
229 1 0.825187 0.412612 0.441476
214 1 0.793112 0.395471 0.278416
89 1 0.84325 0.272168 0.372707
250 1 0.903181 0.487198 0.333235
204 1 0.966671 0.467333 0.49138
238 1 0.694196 0.0910095 0.643035
261 1 0.65853 0.248911 0.618078
216 1 0.543504 0.153519 0.612385
117 1 0.556675 0.0188225 0.719565
215 1 0.589334 0.000977545 0.559659
306 2 0.786391 0.127953 0.713105
268 1 0.848222 0.0398603 0.633352
35 1 0.832859 0.190168 0.611358
358 2 0.789492 0.115626 0.513321
52 1 0.994549 0.0466458 0.645716
273 1 0.986146 0.196192 0.613205
5 1 0.698041 0.399584 0.548251
86 1 0.662719 0.373357 0.713075
338 2 0.720943 0.476391 0.655824
23 1 0.52634 0.339971 0.597962
228 1 0.556551 0.261672 0.739499
107 1 0.587938 0.488916 0.629106
187 1 0.772465 0.259703 0.737196
307 2 0.769602 0.318378 0.621225
137 1 0.889694 0.31123 0.54897
184 1 0.818519 0.406514 0.698388
100 1 0.973372 0.469366 0.660682
178 1 0.927182 0.304744 0.695254
8 1 0.819902 0.4994 0.572184
301 2 0.512324 0.131862 0.754609
60 1 0.741256 0.00694378 0.762421
241 1 0.640131 0.144699 0.780558
200 1 0.549985 0.165422 0.927058
50 1 0.638137 0.0228542 0.879682
83 1 0.681148 0.118358 0.993009
103 1 0.541586 0.0278171 0.998806
133 1 0.991332 0.14331 0.935734
53 1 0.911846 0.144394 0.751
39 1 0.9091 0.0265181 0.882643
11 1 0.773822 0.136597 0.844877
352 2 0.772706 0.0189981 0.904075
217 1 0.896876 0.244729 0.864054
292 2 0.872496 0.0163698 0.758534
104 1 0.846277 0.113531 0.995479
336 2 0.650086 0.416685 0.863596
256 1 0.539311 0.327971 0.890511
201 1 0.695568 0.394561 0.986326
152 1 0.684236 0.258868 0.882418
206 1 0.553043 0.46655 0.780909
101 1 0.556133 0.473075 0.942285
347 2 0.984824 0.403211 0.973429
177 1 0.77016 0.375314 0.853329
350 2 0.890647 0.369149 0.81157
148 1 0.855415 0.405838 0.997041
110 1 0.879095 0.483017 0.865568
282 1 0.64782 0.662812 0.135632
158 1 0.633494 0.503987 0.0822218
123 1 0.577335 0.628667 0.0109761
3 1 0.503184 0.586787 0.162337
305 2 0.701999 0.673385 0.0132642
269 1 0.950697 0.52229 0.0381338
55 1 0.771072 0.567714 0.209141
54 1 0.913771 0.618632 0.175756
130 1 0.791718 0.692763 0.101989
300 2 0.801221 0.697307 0.22286
192 1 0.797239 0.538591 0.0482443
51 1 0.934411 0.739804 0.0316906
244 1 0.999284 0.748061 0.172025
248 1 0.689328 0.961785 0.0186581
61 1 0.576039 0.778453 0.223044
74 1 0.564852 0.914738 0.126854
57 1 0.683734 0.795696 0.0621085
280 1 0.724046 0.799174 0.221105
2 1 0.738312 0.936897 0.155207
131 1 0.525747 0.759707 0.0691211
31 1 0.867566 0.955786 0.0166346
42 1 0.868865 0.840631 0.143318
344 2 0.54983 0.638874 0.279378
279 1 0.625765 0.529365 0.256512
91 1 0.680523 0.674663 0.293134
150 1 0.574935 0.574668 0.396046
207 1 0.569559 0.730856 0.383412
346 2 0.706037 0.637157 0.407075
115 1 0.743141 0.514936 0.357239
29 1 0.680887 0.554499 0.497928
62 1 0.941542 0.635037 0.458062
99 1 0.844683 0.637379 0.343288
294 2 0.845275 0.548862 0.442142
309 2 0.883297 0.742108 0.420158
37 1 0.642269 0.860347 0.457556
286 1 0.648371 0.946767 0.272881
68 1 0.527555 0.866546 0.333918
354 2 0.654623 0.815932 0.334528
284 1 0.755633 0.762926 0.399216
303 2 0.768698 0.900016 0.44841
70 1 0.952222 0.939348 0.266233
147 1 0.910862 0.882144 0.418509
153 1 0.880945 0.787578 0.299375
154 1 0.792199 0.919142 0.329986
186 1 0.691094 0.615482 0.651676
240 1 0.537989 0.603707 0.543489
316 2 0.582365 0.688824 0.633548
317 2 0.609163 0.582424 0.735246
28 1 0.659869 0.714977 0.516128
295 2 0.905513 0.638974 0.576207
260 1 0.942773 0.693343 0.700352
77 1 0.790838 0.725153 0.675328
136 1 0.833152 0.568796 0.708852
264 1 0.791311 0.659509 0.51808
271 1 0.52515 0.866111 0.684846
304 2 0.586159 0.872227 0.562857
114 1 0.675476 0.827037 0.633407
337 2 0.658999 0.956747 0.668255
36 1 0.735617 0.95702 0.566328
170 1 0.952023 0.752622 0.556177
4 1 0.820759 0.823737 0.540536
311 2 0.92756 0.819403 0.683913
175 1 0.928086 0.922064 0.579312
15 1 0.809463 0.884014 0.697354
235 1 0.631471 0.729179 0.75378
90 1 0.707256 0.513565 0.785092
326 2 0.529195 0.729175 0.934651
71 1 0.70291 0.542462 0.935979
231 1 0.584926 0.624507 0.847612
121 1 0.997541 0.576251 0.771465
188 1 0.751005 0.661957 0.805448
181 1 0.983807 0.667689 0.892769
151 1 0.821639 0.655757 0.944752
320 2 0.875789 0.650765 0.816051
44 1 0.50329 0.809139 0.837339
79 1 0.672558 0.762847 0.902182
343 2 0.531391 0.928194 0.842696
333 2 0.68539 0.893592 0.910308
180 1 0.567728 0.870152 0.968751
224 1 0.647409 0.890159 0.786027
275 1 0.96156 0.878801 0.907855
26 1 0.883299 0.777107 0.815022
56 1 0.809438 0.810121 0.972878
328 2 0.751458 0.797706 0.7966
138 1 0.804754 0.901137 0.850928
287 1 0.958916 0.922433 0.751508
ITEM: TIMESTEP
3000000
ITEM: NUMBER OF ATOMS
360
ITEM: BOX BOUNDS pp pp pp
0.0000000000000000e+00 6.6943295008216896e+00
0.0000000000000000e+00 6.6943295008216896e+00
0.0000000000000000e+00 6.6943295008216896e+00
ITEM: ATOMS id type xs ys zs
202 1 0.222002 0.0931056 0.127356
252 1 0.117378 0.219036 0.108931
360 2 0.20177 0.180536 0.0199257
327 2 0.00991184 0.194322 0.324544
41 1 0.313549 0.187233 0.473929
64 1 0.385964 0.0869124 0.0732116
196 1 0.443197 0.19638 0.186653
160 1 0.296017 0.244933 0.109576
118 1 0.330349 0.0686254 0.230397
221 1 0.181579 0.349261 0.16508
82 1 0.0870345 0.434044 0.065272
81 1 0.0476905 0.00912676 0.147853
322 2 0.0407576 0.321699 0.0558895
161 1 0.304485 0.458279 0.424384
251 1 0.464625 0.420329 0.00892656
164 1 0.462718 0.270736 0.0622498
163 1 0.357118 0.396591 0.123136
150 1 0.467252 0.461457 0.426693
132 1 0.0934795 0.090584 0.0224836
134 1 0.239512 0.203247 0.242011
219 1 0.107702 0.133136 0.253145
273 1 0.043883 0.0925659 0.401654
198 1 0.233475 0.0864899 0.359043
205 1 0.145818 0.223975 0.40005
324 2 0.262106 0.257316 0.373945
34 1 0.495832 0.353925 0.193217
66 1 0.471834 0.069354 0.320085
278 1 0.462965 0.147797 0.463894
343 2 0.354459 0.0489547 0.373463
203 1 0.365263 0.182091 0.3369
263 1 0.0865256 0.295826 0.271063
185 1 0.0434633 0.414799 0.36771
142 1 0.20761 0.367524 0.333646
122 1 0.365497 0.325624 0.403921
76 1 0.396244 0.459467 0.275444
141 1 0.344785 0.314754 0.249644
289 2 0.457271 0.333311 0.317486
298 2 0.171396 0.12248 0.480493
199 1 0.087943 0.483203 0.215256
124 1 0.253155 0.500419 0.0514745
103 1 0.473611 8.08997e-05 0.173384
7 1 0.245645 0.494653 0.210046
65 1 0.247288 0.326333 0.499994
9 1 0.185403 0.190743 0.604639
287 1 0.0956824 0.0522034 0.55047
102 1 0.082277 0.23624 0.710078
88 1 0.0207525 0.193917 0.567443
357 2 0.200236 0.041426 0.620326
254 1 0.260976 0.0705751 0.972753
310 2 0.403245 0.252826 0.526044
14 1 0.310293 0.0980251 0.642879
93 1 0.459619 0.155642 0.622756
354 2 0.398257 0.0634415 0.547616
297 2 0.349852 0.182359 0.728975
173 1 0.320835 0.363044 0.980868
204 1 0.216653 0.373512 0.64789
35 1 0.0962024 0.319506 0.552109
295 2 0.114358 0.397126 0.727793
211 1 0.227829 0.234445 0.754331
317 2 0.455954 0.342627 0.766232
49 1 0.480381 0.203821 0.92114
60 1 0.479571 0.222361 0.756615
32 1 0.329315 0.261726 0.629781
12 1 0.36495 0.400113 0.696672
176 1 0.37908 0.39805 0.54751
59 1 0.161601 0.100171 0.733126
178 1 0.0412637 0.135061 0.831801
119 1 0.184903 0.17797 0.888925
22 1 0.0355483 0.221848 0.964562
281 1 0.13982 0.0261034 0.890843
232 1 0.438931 0.0591003 0.75144
336 2 0.432937 0.314203 0.933847
157 1 0.320144 0.207017 0.959605
267 1 0.306009 0.101211 0.820715
109 1 0.421005 0.0664315 0.911202
245 1 0.173847 0.463056 0.524158
75 1 0.486688 0.304258 0.622831
250 1 0.0453099 0.475016 0.809431
87 1 0.111358 0.319459 0.837674
237 1 0.164418 0.453289 0.926298
306 2 0.251071 0.292453 0.906069
223 1 0.364103 0.273209 0.826485
253 1 0.255786 0.391062 0.814765
312 2 0.31006 0.474619 0.924652
94 1 0.401992 0.426181 0.859572
255 1 0.172327 0.305504 0.993272
140 1 0.26883 0.0272835 0.506133
25 1 0.132407 0.584352 0.0972775
183 1 0.0204108 0.667916 0.175787
155 1 0.161524 0.639049 0.238486
191 1 0.345144 0.798683 0.356561
283 1 0.41434 0.704137 0.0738203
84 1 0.305778 0.642966 0.177637
123 1 0.427414 0.537637 0.124911
249 1 0.0113798 0.592747 0.338886
149 1 0.248638 0.667675 0.0247644
246 1 0.132373 0.759538 0.11885
259 1 0.0750152 0.91325 0.0263968
194 1 0.187403 0.924534 0.138679
244 1 0.0521589 0.867248 0.202443
195 1 0.2885 0.936722 0.355233
68 1 0.456788 0.909229 0.31053
1 1 0.41499 0.763306 0.222074
111 1 0.314337 0.941626 0.0476132
33 1 0.345255 0.906594 0.197819
74 1 0.443348 0.86054 0.0930157
156 1 0.290125 0.790404 0.117369
247 1 0.439265 0.981002 0.449879
62 1 0.0503675 0.555349 0.482312
299 2 0.19217 0.956967 0.011331
126 1 0.164873 0.519205 0.366425
168 1 0.145952 0.666736 0.423804
330 2 0.237458 0.724965 0.316986
210 1 0.438323 0.620133 0.253986
329 2 0.251522 0.582238 0.459581
30 1 0.393107 0.578044 0.488296
40 1 0.297933 0.711254 0.4938
218 1 0.294439 0.60706 0.337683
335 2 0.387674 0.67984 0.396482
300 2 0.403293 0.544789 0.356189
325 2 0.450069 0.849526 0.427701
209 1 0.00120286 0.949753 0.337304
212 1 0.0738104 0.736091 0.311181
226 1 0.19043 0.815818 0.409262
127 1 0.19911 0.821692 0.247645
234 1 0.148619 0.972865 0.274287
10 1 0.141876 0.962318 0.434022
291 2 0.077925 0.851722 0.362423
227 1 0.0580761 0.808367 0.483872
145 1 0.181327 0.618934 0.567127
172 1 0.11916 0.684798 0.711592
175 1 0.0366954 0.672812 0.582162
262 1 0.473242 0.626697 0.758166
257 1 0.206625 0.82756 0.996755
331 2 0.172368 0.750587 0.524888
98 1 0.18981 0.511619 0.73827
355 2 0.258565 0.614919 0.669008
240 1 0.376356 0.658367 0.628925
8 1 0.350723 0.540024 0.738417
242 1 0.469426 0.717697 0.509457
27 1 0.346218 0.871818 0.501602
24 1 0.0841948 0.815721 0.636239
69 1 0.116472 0.965032 0.679685
359 2 0.0905838 0.916375 0.547955
243 1 0.211423 0.89668 0.585621
348 2 0.0410643 0.850588 0.7523
121 1 0.247223 0.750127 0.62876
316 2 0.370745 0.76797 0.579312
274 1 0.352339 0.833309 0.698357
96 1 0.476974 0.764216 0.670332
135 1 0.39132 0.960933 0.61782
48 1 0.461578 0.532509 0.624603
276 1 0.363243 0.810535 0.953779
345 2 0.17921 0.576727 0.962144
269 1 0.0254609 0.534706 0.969799
288 1 0.0761451 0.699413 0.972972
225 1 0.108378 0.611367 0.854774
44 1 0.192927 0.737092 0.872513
90 1 0.0250708 0.737528 0.825093
78 1 0.308416 0.694412 0.768044
101 1 0.273597 0.579394 0.871817
108 1 0.386812 0.575336 0.976602
353 2 0.395319 0.551911 0.851651
296 2 0.375416 0.686177 0.912281
73 1 0.430447 0.766669 0.822739
105 1 0.189103 0.824779 0.746297
6 1 0.106371 0.873767 0.874419
80 1 0.391163 0.92151 0.817655
189 1 0.274057 0.976806 0.729426
313 2 0.405476 0.933975 0.957363
171 1 0.263196 0.923485 0.897487
337 2 0.306536 0.81742 0.827777
38 1 0.29578 0.516395 0.589586
270 1 0.496749 0.868599 0.555707
95 1 0.0717675 0.513982 0.641221
45 1 0.700662 0.162294 0.0607376
319 2 0.533395 0.113669 0.214772
248 1 0.63784 0.0434978 0.14518
349 2 0.696625 0.14024 0.201525
166 1 0.527276 0.135926 0.0686261
20 1 0.748768 0.236007 0.256624
58 1 0.919179 0.307568 0.302431
139 1 0.824715 0.139457 0.166375
356 2 0.823788 0.145975 0.0350614
236 1 0.975548 0.202686 0.195547
277 1 0.93163 0.0834544 0.0703483
21 1 0.924481 0.251834 0.060296
52 1 0.992108 0.26247 0.428206
67 1 0.597698 0.226334 0.171702
89 1 0.650592 0.376202 0.204343
55 1 0.715857 0.457523 0.081127
200 1 0.594299 0.346179 0.0615016
342 2 0.814215 0.471023 0.304312
120 1 0.764292 0.292092 0.110919
305 2 0.862685 0.273876 0.185846
258 1 0.813586 0.388247 0.202656
148 1 0.883329 0.41543 0.05994
144 1 0.569941 0.486078 0.134225
129 1 0.629554 0.121326 0.298204
169 1 0.592254 0.0538477 0.428929
23 1 0.654326 0.245178 0.418876
266 1 0.74275 0.113256 0.403637
113 1 0.763777 0.0380351 0.264134
229 1 0.750657 0.386557 0.500931
165 1 0.809519 0.259219 0.411239
351 2 1.00024 0.0607089 0.261757
128 1 0.892342 0.130277 0.310111
197 1 0.905651 0.13837 0.476472
63 1 0.505205 0.301039 0.47004
308 2 0.631615 0.252484 0.290639
338 2 0.619792 0.362029 0.461617
106 1 0.571151 0.36386 0.336927
19 1 0.727516 0.367876 0.336785
28 1 0.645238 0.485727 0.424158
125 1 0.935109 0.473659 0.270884
16 1 0.867474 0.405185 0.410375
18 1 0.518814 0.226492 0.331982
2 1 0.79078 0.00381725 0.110864
214 1 0.991648 0.367172 0.168759
228 1 0.591311 0.159404 0.55047
261 1 0.70612 0.206485 0.694564
358 2 0.568101 0.214638 0.667508
117 1 0.583654 0.0973165 0.716793
17 1 0.710424 0.0575361 0.644168
47 1 0.743 0.182585 0.540449
304 2 0.688306 0.482587 0.547652
233 1 0.96188 0.261131 0.808752
36 1 0.816873 0.0231724 0.536697
268 1 0.865158 0.141509 0.628825
303 2 0.962025 0.0673078 0.562042
136 1 0.997579 0.366411 0.946688
334 2 0.956645 0.214262 0.68377
184 1 0.884211 0.489187 0.671551
107 1 0.547801 0.427248 0.562975
46 1 0.641112 0.296816 0.580097
152 1 0.588871 0.340896 0.727096
100 1 0.889717 0.399318 0.802056
29 1 0.735245 0.415281 0.652273
5 1 0.845579 0.289457 0.691844
86 1 0.892572 0.274766 0.548506
307 2 0.853704 0.39576 0.592211
137 1 0.974497 0.423025 0.538518
301 2 0.759744 0.288223 0.603507
339 2 0.596568 0.441259 0.969063
208 1 0.524842 0.0212924 0.574966
187 1 1.0004 0.360472 0.680505
256 1 0.614787 0.223961 0.816589
39 1 0.707249 0.0580844 0.809555
83 1 0.612659 0.0996201 0.9455
11 1 0.751121 0.185458 0.90914
293 2 0.520178 0.121646 0.841964
85 1 0.982481 0.0104079 0.939367
97 1 0.764994 0.0447155 0.957604
341 2 0.924236 0.0699223 0.83003
53 1 0.841506 0.152542 0.785273
217 1 0.903252 0.149976 0.935349
177 1 0.733047 0.325148 0.79669
147 1 0.864983 0.00542378 0.719404
241 1 0.68273 0.323723 0.940499
206 1 0.652644 0.455127 0.848589
112 1 0.538478 0.349391 0.878976
265 1 0.792359 0.43583 0.926745
92 1 0.847738 0.293541 0.939148
272 1 1.00924 0.0725233 0.685864
309 2 0.680961 0.0609265 0.518144
186 1 0.507444 0.467358 0.754798
323 2 0.596578 0.223079 0.987569
282 1 0.713446 0.620131 0.109597
179 1 0.564175 0.658987 0.0988739
352 2 0.651959 0.737758 0.163845
193 1 0.805139 0.751987 0.404279
51 1 0.867068 0.678559 0.123385
158 1 0.850152 0.560973 -0.00544262
315 2 0.917439 0.602668 0.236742
162 1 0.974181 0.524791 0.119557
192 1 0.820671 0.539114 0.171948
56 1 0.734319 0.758478 0.061996
279 1 0.754259 0.690013 0.243544
116 1 0.864351 1.0075 0.393774
131 1 0.587093 0.799589 0.0497065
3 1 0.557091 0.826954 0.21005
130 1 0.695151 0.87197 0.168344
344 2 0.579867 0.9295 0.123345
13 1 0.978702 0.966332 0.491194
213 1 0.980604 0.787252 0.078367
321 2 0.857494 0.791044 0.0200558
174 1 0.852898 0.829337 0.157287
275 1 0.935595 0.938612 0.0713384
347 2 0.928647 0.851157 0.26901
37 1 0.617629 0.75639 0.483922
143 1 0.591952 0.656639 0.259862
264 1 0.685466 0.648686 0.379988
207 1 0.534837 0.611944 0.408937
285 1 0.511864 0.994081 0.00741369
167 1 0.537461 0.515034 0.28297
332 2 1.00355 0.634843 0.0481308
292 2 0.817286 0.657233 0.491446
99 1 0.943481 0.676747 0.45618
115 1 0.910153 0.725492 0.277005
54 1 0.839808 0.586246 0.350633
346 2 0.710539 0.840681 0.459458
286 1 0.610482 0.958924 0.277763
284 1 0.566935 0.898493 0.421174
280 1 0.656713 0.809909 0.32056
182 1 0.719515 0.955213 0.398786
154 1 0.84577 0.875015 0.49413
153 1 0.94652 0.823434 0.386267
42 1 0.798795 0.877218 0.294383
159 1 0.510659 0.757044 0.356865
70 1 0.906568 0.980884 0.216039
91 1 0.697234 0.521616 0.270086
314 2 0.932019 0.524992 0.407842
61 1 0.656506 0.959014 0.0212201
328 2 0.75941 0.535995 0.432451
333 2 0.512542 0.53983 0.0319393
104 1 0.788387 0.892189 0.00820072
151 1 0.727225 0.652157 0.677455
235 1 0.578623 0.646007 0.603326
311 2 0.619915 0.715374 0.716116
71 1 0.631422 0.525874 0.665533
224 1 0.702783 0.610804 0.526724
220 1 0.854855 0.960167 0.869628
133 1 1.00696 0.971121 0.795032
326 2 0.77347 0.548977 0.630885
77 1 0.86532 0.642807 0.608933
294 2 0.957762 0.558258 0.586891
302 2 0.984594 0.727225 0.680637
114 1 0.766584 0.762926 0.554668
271 1 0.62867 0.818147 0.634275
216 1 0.673521 0.935572 0.54378
238 1 0.65393 0.941825 0.716195
340 2 0.533418 0.550323 0.527867
320 2 0.832299 0.754896 0.671266
222 1 0.970524 0.916232 0.633317
239 1 0.791677 0.886421 0.635745
260 1 0.922187 0.779058 0.581319
26 1 0.898965 0.854215 0.759555
290 2 0.770982 0.914361 0.771093
201 1 0.646657 0.557139 0.982663
190 1 0.959259 0.84069 0.929994
231 1 0.616847 0.609562 0.796996
318 2 0.77614 0.674662 0.988168
43 1 0.510901 0.525085 0.903948
72 1 0.813271 0.787776 0.893187
31 1 0.759754 0.618338 0.879441
188 1 0.774198 0.520986 0.770864
79 1 0.868933 0.695016 0.781791
110 1 0.900449 0.533643 0.860692
181 1 0.916577 0.686162 0.954042
180 1 0.518826 0.848103 0.923174
57 1 0.662089 0.722214 0.925141
230 1 0.584129 0.800622 0.792338
138 1 0.689702 0.900209 0.867224
215 1 0.510068 0.908164 0.711392
15 1 0.7313 0.784578 0.751363
350 2 0.993802 0.621903 0.878675
4 1 0.841995 0.510402 0.5202
50 1 0.557441 0.999424 0.84674
146 1 0.506155 0.678813 0.952551
170 1 0.981505 0.603745 0.730342
ITEM: TIMESTEP
6000000
ITEM: NUMBER OF ATOMS
360
ITEM: BOX BOUNDS pp pp pp
0.0000000000000000e+00 6.6943295008216896e+00
0.0000000000000000e+00 6.6943295008216896e+00
0.0000000000000000e+00 6.6943295008216896e+00
ITEM: ATOMS id type xs ys zs
149 1 0.171768 0.0620666 0.103619
134 1 0.029829 0.129262 0.0883463
246 1 0.153815 0.250784 0.122361
273 1 0.0942095 0.159637 0.249877
221 1 0.0125983 0.286964 0.0681229
194 1 0.252047 0.149981 0.195904
343 2 0.253748 0.16041 0.0655849
312 2 0.385205 0.171842 0.150179
255 1 0.347241 0.0664854 0.0852031
339 2 -0.00218758 0.0790447 0.255512
252 1 0.475185 0.259021 0.151437
279 1 0.407997 0.0831945 0.240064
203 1 0.408606 0.205224 0.0203475
301 2 0.225351 0.34858 0.0371898
237 1 0.213583 0.317896 0.239525
92 1 0.115344 0.401375 0.10763
214 1 0.2642 0.450077 0.132537
207 1 0.163926 0.475633 0.246299
34 1 0.430725 0.398903 0.382273
7 1 0.302832 0.278653 0.127376
251 1 0.419774 0.417609 0.0921103
314 2 0.0498038 0.18343 0.453245
52 1 0.0405612 0.0689673 0.379834
40 1 0.174315 0.131072 0.450577
13 1 0.256321 0.0801321 0.328275
263 1 0.135102 0.254544 0.381348
322 2 0.244157 0.205706 0.313914
10 1 0.305273 0.02364 0.47005
180 1 0.487894 0.137624 0.366414
210 1 0.32767 0.172303 0.423172
338 2 0.372628 0.0628725 0.361374
309 2 0.410963 0.257476 0.388899
150 1 0.281578 0.467831 0.346768
357 2 0.222957 0.252849 0.473431
14 1 0.170558 0.369594 0.479136
245 1 0.0557547 0.424535 0.359691
346 2 0.178727 0.37903 0.346035
141 1 0.0509602 0.314246 0.234127
122 1 0.296113 0.315654 0.371079
205 1 0.367626 0.217596 0.273861
166 1 0.367418 0.38321 0.239519
84 1 0.0194081 0.310284 0.464217
60 1 0.31499 0.431375 0.514099
318 2 0.363234 0.331438 0.0243963
197 1 0.1423 0.152271 0.683553
65 1 0.0714788 0.0896234 0.552036
293 2 0.197994 0.263916 0.730113
128 1 0.120206 0.235122 0.553631
63 1 0.00220926 0.278281 0.655505
9 1 0.284568 0.165703 0.580232
90 1 0.284289 0.0696636 0.724689
239 1 0.430924 0.119482 0.680953
157 1 0.324657 0.242288 0.723777
344 2 0.341583 0.0420996 0.605416
35 1 0.235289 0.320156 0.831244
161 1 0.0309607 0.483029 0.522114
170 1 0.122659 0.363655 0.687941
355 2 0.0726886 0.358685 0.583118
41 1 0.371981 0.294382 0.499417
267 1 0.246013 0.309568 0.610784
29 1 0.255545 0.433392 0.71751
211 1 0.295957 0.411296 0.941917
306 2 0.352905 0.365507 0.778335
269 1 0.387399 0.382426 0.644667
78 1 0.438958 0.454012 0.950198
57 1 0.499729 0.492545 0.681209
46 1 0.45804 0.258957 0.60998
86 1 0.0578121 0.0943324 0.847662
256 1 0.132433 0.149795 0.970653
254 1 0.207893 0.166067 0.819635
274 1 0.384105 0.495597 0.787371
116 1 0.0969363 -0.00371963 0.706021
44 1 0.262823 0.0852539 0.956122
163 1 0.458919 0.0194709 0.976916
17 1 0.366412 0.145761 0.863708
156 1 0.431038 0.114938 0.521915
353 2 0.0231367 0.379732 0.760393
6 1 0.0770025 0.269916 0.809012
253 1 0.134908 0.42965 0.82668
59 1 0.106676 0.339594 0.962377
297 2 0.0507267 0.455219 0.925986
250 1 0.397534 0.304398 0.88687
64 1 0.26178 0.260372 0.968188
151 1 0.495826 0.381442 0.788717
298 2 0.0084707 0.0721933 0.963044
83 1 0.483987 0.0446951 0.820219
249 1 0.189102 0.481546 0.595447
69 1 0.205702 0.00912494 0.582092
303 2 0.124359 0.646558 0.197624
209 1 0.222879 0.60454 0.130075
225 1 0.0663065 0.699511 0.0570031
183 1 0.063072 0.548934 0.117914
167 1 0.3233 0.841189 0.254518
3 1 0.387928 0.674231 0.0623218
25 1 0.417778 0.552735 0.158527
123 1 0.316875 0.685893 0.204491
333 2 0.464264 0.563085 0.0143141
295 2 0.304766 0.543511 0.213107
198 1 0.325119 0.549534 0.0236242
244 1 0.00673911 0.971683 0.098185
138 1 0.170469 0.756006 0.166816
330 2 0.250134 0.715788 0.0642839
153 1 0.0414636 0.834714 0.210107
33 1 0.162285 0.89575 0.132369
22 1 0.00289325 0.837394 0.00973322
311 2 0.41018 0.770562 0.177602
287 1 0.276746 0.974048 0.198784
144 1 0.464797 0.832215 0.0660938
103 1 0.411224 0.946288 0.145238
131 1 0.304234 0.830837 0.11417
358 2 0.385673 0.922714 0.0119861
195 1 0.0653255 0.588581 0.304814
126 1 0.166213 0.527508 0.429595
191 1 0.217515 0.614723 0.30612
37 1 0.207265 0.733876 0.418681
334 2 0.208607 0.73851 0.282379
242 1 0.464693 0.706038 0.28009
286 1 0.416573 0.949855 0.313729
107 1 0.470055 0.657398 0.441839
1 1 0.396644 0.568489 0.316283
96 1 0.345369 0.728217 0.367305
359 2 0.412829 0.533619 0.434924
12 1 0.312921 0.601728 0.444582
68 1 0.0754117 0.746822 0.330621
216 1 0.0297342 0.899667 0.36575
299 2 0.144521 0.853149 0.417681
168 1 0.184916 0.875125 0.30231
27 1 0.175228 0.974615 0.425824
192 1 0.45312 0.814505 0.477079
240 1 0.308551 0.868046 0.413677
325 2 0.441595 0.826822 0.329032
340 2 0.286179 0.957197 0.330252
208 1 0.448707 0.985411 0.450779
80 1 0.256974 0.954956 0.0301451
118 1 0.114986 1.00557 0.249106
175 1 0.211065 0.594152 0.709738
26 1 0.0617556 0.614226 0.591917
24 1 0.0692989 0.691971 0.730668
121 1 0.205412 0.631732 0.556566
94 1 0.334989 0.543112 0.617309
145 1 0.437551 0.666884 0.624125
300 2 0.303955 0.658199 0.629804
276 1 0.32244 0.750991 0.533272
220 1 0.499323 0.721531 0.964103
222 1 0.207006 0.746852 0.6758
189 1 0.079211 0.824932 0.645538
204 1 0.206465 0.849937 0.540085
272 1 0.0765723 0.940548 0.521136
236 1 0.0083309 0.564337 0.960402
227 1 0.241102 0.915265 0.695047
132 1 0.354567 0.792557 0.670371
39 1 0.393142 0.959264 0.728478
232 1 0.352863 0.910156 0.566199
288 1 0.194711 0.706506 0.82543
98 1 0.117696 0.579636 0.836827
348 2 0.160724 0.631796 0.972125
215 1 0.486117 0.624449 0.765882
247 1 0.499516 0.833796 0.634648
257 1 0.46399 0.789679 0.782677
73 1 0.330779 0.666993 0.764666
102 1 0.257778 0.54753 0.865623
326 2 0.398276 0.722366 0.866052
127 1 0.406408 0.598082 0.902776
172 1 0.0598636 0.75882 0.875434
111 1 0.185388 0.808373 1.0078
160 1 0.114516 0.98404 0.973676
313 2 0.0593382 0.963395 0.831337
319 2 0.233455 0.896919 0.908561
140 1 0.144582 0.858832 0.8118
104 1 0.467885 0.878326 0.899764
8 1 0.347863 0.964805 0.876437
38 1 0.341633 0.809676 0.967819
101 1 0.286358 0.677052 0.95051
108 1 0.30856 0.822736 0.813609