ITEM: TIMESTEP
0
ITEM: NUMBER OF ATOMS
360
ITEM: BOX BOUNDS pp pp pp
0.0000000000000000e+00 6.6943295008216896e+00
0.0000000000000000e+00 6.6943295008216896e+00
0.0000000000000000e+00 6.6943295008216896e+00
ITEM: ATOMS id type xs ys zs
233 1 0.145334 0.101416 0.0587275
235 1 0.0495781 0.189294 0.153993
93 1 0.199381 0.227156 0.133481
171 1 0.245039 0.0465027 0.172906
296 2 0.158381 0.133922 0.197679
247 1 0.0752735 0.0334175 0.184621
315 2 0.0943143 0.244879 0.0473782
24 1 0.309612 0.142938 0.077967
133 1 0.475759 0.149849 0.116197
329 2 0.373605 0.0837252 0.181288
13 1 0.351171 0.240566 0.184752
86 1 0.390361 0.0246363 0.0368176
294 2 0.279508 0.000927555 0.0677088
358 2 0.498413 0.0177518 0.110359
59 1 0.0447948 0.352121 0.0933009
287 1 0.182332 0.350097 0.0411048
220 1 0.134326 0.460609 0.188063
27 1 0.116209 0.312581 0.23977
40 1 0.107507 0.492231 0.0215295
118 1 0.331365 0.379565 0.0162866
134 1 0.270293 0.372321 0.16256
163 1 0.423481 0.415742 0.127811
146 1 0.451283 0.281912 0.0406099
300 2 0.294612 0.266445 0.0457937
334 2 0.472028 0.290121 0.176827
295 2 0.381881 0.499019 0.0415118
299 2 0.254379 0.498237 0.228642
184 1 0.125764 0.182393 0.493657
345 2 0.037141 0.0629602 0.309721
261 1 0.0888006 0.0245442 0.426413
19 1 0.111522 0.165404 0.325698
241 1 0.234834 0.102792 0.42081
15 1 0.175078 0.0113849 0.304495
182 1 0.496701 0.030986 0.385119
252 1 0.462259 0.136275 0.272809
88 1 0.261973 0.166281 0.270633
175 1 0.395461 0.138375 0.411113
346 2 0.289367 0.218395 0.418868
150 1 0.343168 0.0335186 0.312455
335 2 0.37275 0.0182282 0.442838
83 1 0.0563762 0.323491 0.491168
222 1 0.193331 0.294495 0.392742
305 2 0.057823 0.26442 0.376919
125 1 0.213084 0.421527 0.316405
136 1 0.0535886 0.398395 0.350353
279 1 0.165445 0.448275 0.461772
352 2 0.454144 0.382313 0.35824
187 1 0.326461 0.412023 0.427817
185 1 0.364051 0.432574 0.276179
176 1 0.375262 0.266545 0.33665
339 2 0.258386 0.302694 0.27306
95 1 0.106834 0.161945 0.648672
64 1 0.185231 0.034367 0.541489
330 2 0.226665 0.173799 0.585595
282 1 0.242338 0.0996746 0.685871
122 1 3.75532e-05 0.0561 0.572556
259 1 0.117505 0.00355948 0.67659
344 2 0.00213283 0.217964 0.698881
20 1 0.394968 0.0690481 0.708539
58 1 0.470245 0.203775 0.640849
243 1 0.332241 0.112452 0.547305
22 1 0.322448 0.240455 0.662207
271 1 0.448471 0.0208782 0.567094
291 2 0.300534 0.00319511 0.627873
124 1 0.238508 0.302937 0.54216
153 1 0.0237247 0.474699 0.557444
301 2 0.128855 0.271901 0.58727
128 1 0.184466 0.326792 0.698796
119 1 0.0349921 0.343241 0.656656
316 2 0.144272 0.399707 0.586418
212 1 0.0816492 0.484331 0.706627
16 1 0.383219 0.254717 0.508081
154 1 0.457246 0.353409 0.670007
281 1 0.333031 0.39297 0.600989
270 1 0.45163 0.419793 0.514613
306 2 0.128458 0.126834 0.776014
67 1 0.0756734 0.102829 0.892387
173 1 0.178665 0.221583 0.947272
219 1 0.232509 0.201177 0.800377
359 2 0.0324622 0.233696 0.911531
21 1 0.183843 0.0181301 0.813148
323 2 0.411026 0.16141 0.990533
288 1 0.39849 0.204998 0.792891
87 1 0.261701 0.0695747 0.945756
62 1 0.41423 0.0800743 0.872096
310 2 0.295543 0.0895806 0.805291
268 1 0.32734 0.221133 0.930361
44 1 0.0947661 0.260085 0.80742
293 2 0.116875 0.410508 0.80394
322 2 0.226593 0.446441 0.953453
140 1 0.225904 0.341603 0.874046
280 1 0.224518 0.477925 0.793719
161 1 0.0804093 0.367947 0.922511
1 1 0.32554 0.370717 0.762623
54 1 0.483222 0.44052 0.983911
168 1 0.449997 0.461729 0.787285
114 1 0.350588 0.475654 0.905929
99 1 0.421137 0.341467 0.879706
285 1 0.168325 0.635891 0.0561993
94 1 0.0458245 0.64205 0.229492
331 2 0.0981828 0.570841 0.132721
202 1 0.199899 0.608672 0.219255
326 2 0.0710881 0.731729 0.0656296
276 1 0.481983 0.566516 0.0783244
292 2 0.27094 0.648661 0.12176
112 1 0.436816 0.706816 0.133222
159 1 0.351231 0.581055 0.176392
91 1 0.294164 0.731432 0.236328
49 1 0.336548 0.610708 0.00638965
226 1 0.256771 0.501936 0.0824131
78 1 0.15902 0.755891 0.161613
106 1 0.0619835 0.866457 0.145054
236 1 0.195834 0.910647 0.10679
127 1 0.00687471 0.995754 0.0240814
249 1 0.46292 0.975653 0.224581
69 1 0.313904 0.754551 0.0690047
246 1 0.412028 0.876721 0.0947371
264 1 0.313214 0.914713 0.21952
77 1 0.428922 0.819466 0.239657
192 1 0.180062 0.607449 0.458872
149 1 0.171339 0.717217 0.326125
3 1 0.0367387 0.686408 0.40328
80 1 0.0967294 0.544091 0.341056
145 1 0.427875 0.528031 0.381066
130 1 0.273767 0.577896 0.349586
242 1 0.397708 0.660003 0.465022
314 2 0.288323 0.711736 0.37664
121 1 0.415792 0.665772 0.299407
113 1 0.188366 0.862428 0.287121
65 1 0.243312 0.943658 0.429175
267 1 0.109321 0.853627 0.421085
5 1 0.0284617 0.938643 0.311175
277 1 0.03357 0.791598 0.28989
354 2 0.391687 0.788396 0.456951
325 2 0.416989 0.923408 0.337248
167 1 0.258376 0.783677 0.486812
215 1 0.334125 0.838158 0.358358
141 1 0.455131 0.904582 0.467772
205 1 0.108671 0.601471 0.612479
201 1 0.120478 0.727246 0.526097
255 1 0.233874 0.617361 0.722956
68 1 0.0662988 0.654279 0.74917
230 1 0.215706 0.501912 0.611573
221 1 0.256838 0.661863 0.584594
193 1 0.407438 0.639334 0.624155
237 1 0.49304 0.500813 0.652793
37 1 0.338359 0.740441 0.73109
103 1 0.342659 0.529319 0.527318
48 1 0.343316 0.519273 0.707759
348 2 0.02765 0.816127 0.631338
229 1 0.161373 0.76813 0.670367
238 1 0.151483 0.882489 0.564555
343 2 0.110723 0.872509 0.71992
194 1 0.251549 0.912033 0.704931
26 1 0.391013 0.782861 0.583201
357 2 0.277667 0.807311 0.632254
9 1 0.322928 0.905179 0.55787
225 1 0.415958 0.904593 0.684944
317 2 0.461594 0.771781 0.692339
84 1 0.0422648 0.514675 0.857916
223 1 0.189856 0.702669 0.836651
324 2 0.138342 0.581981 0.822506
53 1 0.0797271 0.656601 0.931638
52 1 0.21091 0.567485 0.928121
347 2 0.248077 0.681823 0.944243
148 1 0.426477 0.747832 0.961234
105 1 0.333424 0.618601 0.843093
126 1 0.475424 0.584551 0.918991
101 1 0.459052 0.645756 0.767021
244 1 0.156135 0.970212 0.962586
203 1 0.185148 0.78511 0.992292
123 1 0.0329177 0.7717 0.8455
97 1 0.0326888 0.949079 0.854196
152 1 0.160328 0.861728 0.830409
61 1 0.0420139 0.852466 0.979592
60 1 0.342734 0.95248 0.817043
265 1 0.464177 0.92697 0.934058
32 1 0.304777 0.783534 0.880095
14 1 0.454747 0.804159 0.828164
151 1 0.288882 0.901784 0.982647
178 1 0.625366 0.089008 0.106883
98 1 0.581296 0.218429 0.198576
8 1 0.603447 0.220428 0.0344895
41 1 0.700378 0.149644 0.244389
251 1 0.779528 0.122697 0.113647
85 1 0.928873 0.0804704 0.149323
333 2 0.826491 0.138334 0.23314
51 1 0.89008 0.227898 0.124451
107 1 0.856665 0.00644516 0.0321674
174 1 0.99073 0.149169 0.0157531
25 1 0.721003 0.271562 0.134592
76 1 0.579935 0.363484 0.117206
204 1 0.689388 0.387399 0.225082
120 1 0.783576 0.485531 0.165491
231 1 0.779137 0.474979 0.00912767
190 1 0.864699 0.382123 0.10083
169 1 0.953971 0.343114 0.238362
266 1 0.99211 0.487172 0.132708
338 2 0.74418 0.0357312 0.250595
71 1 0.65398 0.0208704 0.348001
355 2 0.580459 0.064141 0.258066
341 2 0.710065 0.189315 0.395617
81 1 0.592843 0.155341 0.358566
213 1 0.909761 0.0301404 0.286776
278 1 0.825322 0.139998 0.360511
164 1 0.957814 0.184995 0.281191
30 1 0.984156 0.142044 0.422571
197 1 0.655308 0.295382 0.491565
18 1 0.514739 0.299636 0.428668
312 2 0.721863 0.423251 0.378153
137 1 0.640193 0.30066 0.336703
179 1 0.571316 0.445387 0.39029
327 2 0.507395 0.254356 0.319509
75 1 0.52334 0.355111 0.264736
217 1 0.833722 0.417451 0.317106
170 1 0.930079 0.306837 0.386306
239 1 0.779384 0.301216 0.407174
129 1 0.817661 0.26307 0.262355
143 1 0.937474 0.454084 0.427865
72 1 0.575056 0.0964115 0.686815
342 2 0.671218 0.180721 0.748031
57 1 0.738025 0.116581 0.664545
42 1 0.639861 0.230362 0.636508
108 1 0.52386 0.153663 0.504448
208 1 0.677266 0.137588 0.508789
191 1 0.599793 0.00686237 0.510814
115 1 0.877495 0.152805 0.68795
6 1 0.972359 0.217829 0.566878
104 1 0.852439 0.117727 0.507691
210 1 0.986843 0.0689476 0.743623
308 2 0.677098 0.34337 0.61245
31 1 0.602118 0.428217 0.542385
144 1 0.621484 0.407068 0.702372
160 1 0.724264 0.297248 0.734338
313 2 0.511795 0.283471 0.550242
214 1 0.795738 0.260065 0.57292
234 1 0.879757 0.304141 0.697512
92 1 0.906652 0.3659 0.55707
147 1 0.773982 0.443557 0.664013
250 1 0.915148 0.461567 0.696177
46 1 0.764066 0.414151 0.510556
240 1 0.514099 0.208195 0.907248
55 1 0.619273 0.115501 0.845851
33 1 0.695602 0.115803 0.973433
39 1 0.521967 0.0768423 0.980735
302 2 0.50051 0.124056 0.78717
177 1 0.833874 0.170708 0.958619
102 1 0.910795 0.0495093 0.886214
17 1 0.780056 0.14069 0.809921
7 1 0.940904 0.194048 0.823135
89 1 0.652439 0.373756 0.98612
34 1 0.550909 0.256293 0.764197
189 1 0.677881 0.270447 0.883349
139 1 0.573688 0.404374 0.857185
156 1 0.735039 0.412944 0.858434
303 2 0.539704 0.329333 0.956594
158 1 0.864734 0.49781 0.871004
35 1 0.832264 0.294345 0.841037
73 1 0.977365 0.366187 0.809535
50 1 0.788125 0.310884 0.993163
186 1 0.943065 0.284617 0.970952
319 2 0.840584 0.397914 0.769941
36 1 0.952162 0.439941 0.98147
180 1 0.57295 0.652329 0.187212
142 1 0.725898 0.619507 0.0657649
82 1 0.579063 0.670705 0.0282834
360 2 0.681041 0.715502 0.176043
63 1 0.507386 0.519149 0.236316
100 1 0.627833 0.510898 0.125692
157 1 0.992417 0.623126 0.0567165
28 1 0.888947 0.612187 0.168894
311 2 0.87681 0.519042 0.0755742
269 1 0.826542 0.726049 0.0789789
272 1 0.966273 0.747009 0.148032
320 2 0.856824 0.723734 0.221698
23 1 0.705564 0.963332 0.0450151
10 1 0.647452 0.959317 0.189695
286 1 0.665763 0.805721 0.0778378
138 1 0.576451 0.810902 0.20001
183 1 0.557822 0.913957 0.0641444
290 2 0.533495 0.777957 0.0872362
162 1 0.811338 0.962748 0.171405
228 1 0.755384 0.824246 0.207324
336 2 0.783152 0.86624 0.0868975
216 1 0.912878 0.875607 0.0796876
307 2 0.974237 0.952457 0.164405
96 1 0.905466 0.866957 0.237756
340 2 0.524607 0.719371 0.279437
218 1 0.691247 0.525894 0.286926
258 1 0.63001 0.687653 0.485073
351 2 0.714235 0.640938 0.374867
79 1 0.667221 0.538922 0.461238
109 1 0.553466 0.613408 0.355904
11 1 0.649972 0.736861 0.307123
12 1 0.760676 0.64888 0.250643
309 2 0.82506 0.545874 0.271822
289 2 0.883178 0.723132 0.425871
207 1 0.934691 0.601262 0.494826
172 1 0.811522 0.555075 0.406386
135 1 0.909284 0.660558 0.32137
206 1 0.948957 0.504472 0.275757
131 1 0.771727 0.702854 0.473508
349 2 0.679224 0.880548 0.299383
110 1 0.654114 0.841356 0.452021
200 1 0.560279 0.895859 0.335902
70 1 0.513166 0.766403 0.400815
4 1 0.938214 0.831857 0.393876
260 1 0.79592 0.789575 0.349734
199 1 0.796446 0.938161 0.324049
165 1 0.918414 0.993496 0.441609
196 1 0.757265 0.997794 0.473272
284 1 0.684527 0.67934 0.742439
274 1 0.55605 0.67379 0.636473
298 2 0.698427 0.669411 0.615312
227 1 0.653956 0.542936 0.63737
253 1 0.513181 0.57363 0.508414
321 2 0.502914 0.715164 0.519619
166 1 0.782576 0.569229 0.553669
45 1 0.832348 0.712377 0.622377
132 1 0.807588 0.589737 0.733091
263 1 0.949673 0.612366 0.644846
332 2 0.89731 0.504129 0.576126
256 1 0.683615 0.79609 0.617727
297 2 0.668901 0.876784 0.708117
155 1 0.567765 0.944996 0.648597
181 1 0.712268 0.966892 0.611756
257 1 0.550086 0.819844 0.562818
273 1 0.57907 0.799781 0.72882
56 1 0.973752 0.922867 0.68412
245 1 0.964355 0.754674 0.53365
43 1 0.995981 0.896892 0.530953
47 1 0.943373 0.756973 0.718121
66 1 0.796747 0.855198 0.699472
328 2 0.894434 0.853954 0.604028
29 1 0.859737 0.985127 0.597452
198 1 0.807523 0.847464 0.504605
304 2 0.70356 0.516989 0.755232
232 1 0.57925 0.549294 0.783736
248 1 0.584879 0.693228 0.858145
188 1 0.725672 0.721646 0.934943
116 1 0.728215 0.586694 0.871166
111 1 0.61508 0.530061 0.961633
283 1 0.933872 0.743677 0.971342
350 2 0.97653 0.55448 0.755149
2 1 0.818534 0.726849 0.806637
254 1 0.937449 0.641507 0.831333
356 2 0.972205 0.572307 0.943077
262 1 0.858925 0.614407 0.976931
211 1 0.573773 0.811093 0.949423
353 2 0.687526 0.872819 0.950975
74 1 0.696591 0.834509 0.822984
90 1 0.60912 0.982983 0.912131
337 2 0.572781 0.887089 0.833658
38 1 0.674383 0.980936 0.772092
275 1 0.501384 0.982717 0.785754
318 2 0.905608 0.926735 0.940245
195 1 0.81376 0.838298 0.967377
209 1 0.903918 0.863595 0.823347
117 1 0.765051 0.982487 0.904555
224 1 0.832548 0.993991 0.760717
ITEM: TIMESTEP
1000000
ITEM: NUMBER OF ATOMS
360
ITEM: BOX BOUNDS pp pp pp
0.0000000000000000e+00 6.6943295008216896e+00
0.0000000000000000e+00 6.6943295008216896e+00
0.0000000000000000e+00 6.6943295008216896e+00
ITEM: ATOMS id type xs ys zs
164 1 0.138004 0.170471 0.178945
107 1 0.0916489 0.0584406 0.0823106
326 2 0.138819 0.0455405 0.198421
279 1 0.0990779 0.222538 0.0098892
118 1 0.247093 0.157796 0.0660693
249 1 0.27201 0.0493289 0.195959
353 2 0.345973 0.150045 0.148594
171 1 0.389196 0.0611029 0.062231
54 1 0.437364 0.23108 0.0776327
98 1 0.463894 0.140263 0.223993
88 1 0.271308 0.222251 0.224354
308 2 0.0643297 0.289125 0.120802
136 1 0.163741 0.368073 0.0476941
93 1 0.167142 0.333801 0.202528
305 2 0.130144 0.300448 0.502622
170 1 0.00598011 0.0536532 0.42608
287 1 0.293697 0.301458 0.0845538
24 1 0.433066 0.378419 0.121079
13 1 0.274153 0.445047 0.148836
18 1 0.404576 0.284753 0.270072
296 2 0.294545 0.350548 0.235524
63 1 0.385972 0.350385 0.409981
222 1 0.321447 0.483067 0.402052
331 2 0.0932174 0.484397 0.031849
213 1 0.0660015 0.106639 0.296172
230 1 0.157254 0.067816 0.446239
59 1 0.0762225 0.21259 0.413378
175 1 0.218303 0.150922 0.338656
263 1 0.165849 0.507018 0.458988
182 1 0.451821 0.0735648 0.365212
306 2 0.356261 0.134976 0.299104
185 1 0.350313 0.197802 0.409441
65 1 0.298098 0.0311476 0.372802
80 1 0.390895 0.448213 0.269495
184 1 0.241179 0.315065 0.359487
83 1 0.0260404 0.26826 0.244757
320 2 0.134989 0.256156 0.30333
192 1 0.092095 0.362712 0.364127
130 1 0.198408 0.453769 0.298348
332 2 0.0609197 0.388176 0.241979
216 1 0.010633 0.380728 0.0317256
266 1 0.101678 0.47673 0.15394
134 1 0.355677 0.48216 0.0234512
69 1 0.468841 0.476839 0.402079
261 1 0.164729 0.0882663 0.612135
139 1 0.113265 0.198111 0.72438
104 1 0.0548924 0.241284 0.579741
316 2 0.0706719 0.123273 0.518896
22 1 0.343244 0.0831642 0.507806
352 2 0.271183 0.153157 0.611094
6 1 0.305383 0.0433526 0.673357
271 1 0.459685 0.035199 0.604895
89 1 0.390388 0.182276 0.676117
297 2 0.0230878 0.262783 0.795329
128 1 0.0256956 0.494661 0.698229
193 1 0.444524 0.437213 0.770767
212 1 0.185292 0.307763 0.632113
103 1 0.188026 0.46 0.651689
187 1 0.0775047 0.400762 0.568999
100 1 0.0818734 0.354064 0.73598
124 1 0.0255071 0.0574861 0.77117
334 2 0.442025 0.42893 0.923044
270 1 0.367734 0.27206 0.548497
144 1 0.339558 0.391684 0.678111
179 1 0.398031 0.431036 0.540123
232 1 0.466965 0.321638 0.654781
238 1 0.00011533 0.0838171 0.619658
1 1 0.400278 0.323621 0.968519
288 1 0.182609 0.0659683 0.766223
67 1 0.196758 0.114724 0.923259
233 1 0.0655334 0.159247 0.880775
359 2 0.158958 0.241448 0.833768
56 1 0.0773114 0.0104295 0.927874
281 1 0.263818 0.217631 0.749975
268 1 0.462831 0.0597919 0.752213
356 2 0.311875 0.0458989 0.94926
310 2 0.437276 0.159584 0.846196
114 1 0.352867 0.168289 0.954439
87 1 0.328478 0.0893636 0.818436
55 1 0.450785 0.0419748 0.913762
173 1 0.0191764 0.453602 0.849982
48 1 0.234083 0.26858 0.926481
280 1 0.230162 0.362859 0.791526
102 1 0.0826184 0.321667 0.895933
255 1 0.156922 0.462492 0.912829
231 1 0.322297 0.429534 0.877059
168 1 0.383961 0.281514 0.82586
221 1 0.252236 0.372608 0.511081
290 2 0.23977 0.00956203 0.52475
324 2 0.276213 0.392266 0.990504
243 1 0.477309 0.168884 0.49933
154 1 0.209781 0.195005 0.50863
140 1 0.0812391 0.619823 0.0893
202 1 0.206852 0.588592 0.196575
52 1 0.221909 0.54025 0.0314209
343 2 0.0204815 0.718848 0.130646
262 1 0.0389637 0.754031 0.00477329
141 1 0.371811 0.88232 0.403131
125 1 0.379575 0.564362 0.152233
285 1 0.297027 0.702297 0.111462
299 2 0.416403 0.68279 0.176327
167 1 0.0582612 0.824511 0.244796
91 1 0.148271 0.76293 0.134685
113 1 0.169573 0.919379 0.164613
97 1 0.0970317 0.903786 0.0394729
32 1 0.246346 0.835884 0.0300174
106 1 0.0237005 0.986227 0.198007
70 1 0.283565 0.894036 0.290748
292 2 0.274178 0.834099 0.161485
246 1 0.363569 0.910961 0.121656
126 1 0.417785 0.791392 0.0516911
242 1 0.39311 0.801976 0.228066
220 1 0.0788471 0.668751 0.239655
289 2 0.0869579 0.607178 0.41818
245 1 0.204322 0.615003 0.349536
19 1 0.0637294 0.507713 0.318386
3 1 0.092915 0.74624 0.37902
112 1 0.496719 0.955325 0.0378627
277 1 0.292067 0.754057 0.410275
77 1 0.409796 0.999462 0.249196
327 2 0.297038 0.532006 0.268796
49 1 0.466941 0.576551 0.283871
236 1 0.343501 0.661376 0.277595
37 1 0.382802 0.616209 0.434347
215 1 0.447566 0.745453 0.372846
329 2 0.163903 0.86033 0.319466
264 1 0.220119 0.90711 0.439599
203 1 0.21961 0.759359 0.269116
217 1 0.0436789 0.893877 0.409227
15 1 0.142558 0.982895 0.312563
339 2 0.0157797 0.975829 0.319275
174 1 0.235616 0.990687 0.0473247
14 1 0.370651 0.63088 0.00804299
298 2 0.492214 0.672913 0.486415
229 1 0.207761 0.626393 0.6482
207 1 0.0712238 0.570001 0.571147
351 2 0.10233 0.687102 0.608171
132 1 0.0626992 0.660676 0.724706
61 1 0.153217 0.842188 0.911839
258 1 0.47401 0.56936 0.55923
273 1 0.356276 0.654294 0.636274
205 1 0.291731 0.527517 0.553539
237 1 0.478662 0.583765 0.712007
47 1 0.31477 0.534475 0.745634
357 2 0.299057 0.659088 0.523233
20 1 0.383087 0.93894 0.808344
317 2 0.263952 0.736175 0.707631
194 1 0.143917 0.787338 0.683682
43 1 0.109076 0.811191 0.534085
267 1 0.21206 0.930889 0.626682
176 1 0.0846505 0.965653 0.537087
9 1 0.256641 0.788398 0.568172
152 1 0.327022 0.755223 0.922039
291 2 0.259716 0.963178 0.767038
155 1 0.483729 0.883061 0.606013
60 1 0.370221 0.81576 0.687674
321 2 0.389367 0.953197 0.680377
64 1 0.343765 0.928685 0.541906
26 1 0.398768 0.760055 0.519574
84 1 0.151187 0.536365 0.780089
53 1 0.177581 0.699723 0.827531
68 1 0.0721478 0.608189 0.926154
101 1 0.490236 0.727472 0.768542
259 1 0.00822395 0.750075 0.851752
337 2 0.41266 0.801833 0.84536
105 1 0.260281 0.582353 0.887444
223 1 0.340012 0.685662 0.790412
146 1 0.43204 0.562158 0.850566
348 2 0.0389277 0.834567 0.756264
211 1 0.476043 0.706775 0.916735
309 2 0.385845 0.512056 0.634983
244 1 0.370757 0.917753 0.959612
282 1 0.130395 0.922662 0.779557
225 1 0.258193 0.830551 0.795901
21 1 0.232306 0.968922 0.890736
135 1 0.000544498 0.691745 0.509107
226 1 0.198944 0.701187 0.980996
318 2 0.10151 0.994913 0.662308
201 1 0.176691 0.664289 0.50572
133 1 0.53579 0.101534 0.0866958
10 1 0.724816 0.0573797 0.118758
41 1 0.622952 0.110699 0.245981
307 2 0.789402 0.0481316 0.256333
208 1 0.824711 0.16772 0.207428
251 1 0.874827 0.0138043 0.146286
247 1 0.975506 0.128035 0.159946
166 1 0.985484 0.484229 0.451542
169 1 0.813368 0.467905 0.175253
239 1 0.666609 0.216697 0.13455
75 1 0.535972 0.284869 0.186472
295 2 0.565772 0.232073 0.0628665
8 1 0.649565 0.391703 0.135131
333 2 0.631652 0.469152 0.0307004
76 1 0.536477 0.46228 0.21262
86 1 0.81974 0.157742 0.0430732
50 1 0.75683 0.432205 0.025607
241 1 0.94204 0.255355 0.101941
235 1 0.800617 0.307969 0.145058
312 2 0.882668 0.418744 0.0653038
161 1 0.956784 0.397419 0.178368
325 2 0.900365 0.308526 0.245026
163 1 0.554882 0.350097 0.0104001
197 1 0.50447 0.221426 0.36652
81 1 0.610644 0.0858813 0.397514
156 1 0.6361 0.226264 0.447431
42 1 0.512933 0.322436 0.499806
30 1 0.746953 0.157848 0.339474
92 1 0.915464 0.223858 0.353204
5 1 0.911296 0.0649181 0.305149
315 2 0.852969 0.0789524 0.425325
153 1 0.969995 0.322418 0.478658
204 1 0.68331 0.434268 0.271398
145 1 0.655414 0.26867 0.288738
149 1 0.676111 0.376375 0.41392
31 1 0.538924 0.353863 0.32622
147 1 0.788064 0.255263 0.463757
137 1 0.795385 0.323793 0.317477
46 1 0.828099 0.422152 0.449646
206 1 0.936341 0.383952 0.339448
253 1 0.579122 0.475511 0.501799
257 1 0.744489 0.0886284 0.482463
85 1 0.970055 0.127844 0.00284571
311 2 0.599593 0.478357 0.359798
199 1 0.757137 -0.000400231 0.364623
214 1 0.582972 0.239099 0.598096
34 1 0.663617 0.137594 0.712941
110 1 0.588974 0.0869451 0.55009
345 2 0.540987 0.127085 0.666591
108 1 0.732209 0.0188086 0.620518
23 1 0.858949 0.316927 0.993947
330 2 0.688696 0.179219 0.56316
191 1 0.80694 0.163046 0.617336
17 1 0.953095 0.219113 0.696081
35 1 0.557314 0.488879 0.913564
210 1 0.935403 0.162595 0.504044
278 1 0.888027 0.00824793 0.543461
304 2 0.667239 0.438932 0.653344
115 1 0.676743 0.296787 0.705481
227 1 0.689711 0.352106 0.560224
234 1 0.536557 0.452974 0.646043
313 2 0.568143 0.349636 0.737163
209 1 0.783362 0.00596664 0.96048
73 1 0.791333 0.40999 0.696985
119 1 0.874597 0.305712 0.601296
250 1 0.898539 0.461136 0.587585
346 2 0.976976 0.36244 0.64677
314 2 0.578822 0.0360817 0.959001
178 1 0.663937 0.122118 0.9887
39 1 0.587184 0.103354 0.843316
62 1 0.515439 0.209242 0.938085
240 1 0.5196 0.214221 0.763117
358 2 0.709375 0.0220393 0.752499
99 1 0.666275 0.250185 0.85079
252 1 0.764855 0.108059 0.839233
29 1 0.79754 0.226741 0.762248
294 2 0.787593 0.224415 0.902954
350 2 0.89535 0.140891 0.777291
33 1 0.916196 0.222893 0.871101
117 1 0.900688 0.0397281 0.871739
51 1 0.886191 0.469378 0.927955
355 2 0.94311 0.353704 0.901144
347 2 0.970199 0.256092 0.975865
344 2 0.657842 0.39506 0.920588
160 1 0.529914 0.342733 0.857876
36 1 0.659886 0.422399 0.791836
57 1 0.857481 0.0487752 0.706567
16 1 0.928293 0.354067 0.777573
177 1 0.784384 0.350918 0.849315
58 1 0.596957 0.00513642 0.697567
180 1 0.697909 0.289271 0.998176
25 1 0.656378 0.715166 0.151137
186 1 0.668615 0.547559 0.133547
335 2 0.666119 0.993685 0.470021
300 2 0.534256 0.594458 0.167127
159 1 0.529591 0.720167 0.239535
27 1 0.960059 0.52205 0.0468859
120 1 0.798871 0.631411 0.182105
195 1 0.90893 0.667346 0.0870255
269 1 0.793579 0.574869 0.0363004
28 1 0.957585 0.562232 0.197254
94 1 0.917771 0.732549 0.245611
12 1 0.780215 0.837788 0.34806
200 1 0.50488 0.955385 0.463085
148 1 0.534732 0.841083 0.132917
303 2 0.674823 0.876735 0.122501
157 1 0.646073 0.957128 0.0304077
96 1 0.630516 0.832061 0.24702
138 1 0.51039 0.909086 0.31867
162 1 0.778818 0.729297 0.0366933
90 1 0.755788 0.93724 0.221145
129 1 0.864939 0.516123 0.342451
150 1 0.592039 0.980333 0.176653
272 1 0.793259 0.790079 0.187971
127 1 0.799393 0.898961 0.076605
78 1 0.903783 0.899111 0.258198
165 1 0.905926 0.939989 0.399159
82 1 0.64245 0.620312 0.277703
109 1 0.551092 0.606513 0.402136
121 1 0.658198 0.722902 0.397341
218 1 0.698185 0.543538 0.397677
360 2 0.717989 0.729658 0.269046
340 2 0.558066 0.801389 0.351558
338 2 0.751981 0.559122 0.275102
260 1 0.802483 0.67241 0.341712
198 1 0.851677 0.581748 0.482241
143 1 0.973776 0.631089 0.361454
38 1 0.945038 0.96585 0.0184237
286 1 0.619854 0.786894 0.00882619
4 1 0.935929 0.785324 0.382727
11 1 0.562469 0.796798 0.49749
71 1 0.653745 0.883496 0.409845
354 2 0.625438 0.991597 0.312732
276 1 0.522595 0.680162 0.0812071
228 1 0.961825 0.838248 0.117921
111 1 0.508794 0.504759 0.0613138
122 1 0.779261 0.914407 0.500753
116 1 0.635475 0.567039 0.66347
248 1 0.643192 0.710492 0.706369
2 1 0.643529 0.655011 0.524493
7 1 0.739801 0.514511 0.895826
284 1 0.768274 0.76482 0.758873
181 1 0.785905 0.657155 0.63064
66 1 0.935584 0.606895 0.6284
293 2 0.816665 0.543508 0.668341
302 2 0.592596 0.814976 0.629081
72 1 0.621416 0.923612 0.559981
256 1 0.711048 0.785777 0.584935
74 1 0.672031 0.874066 0.715884
341 2 0.83399 0.782058 0.643831
172 1 0.982739 0.761781 0.644705
158 1 0.831966 0.904461 0.654623
196 1 0.947056 0.857612 0.533678
283 1 0.988572 0.894734 0.887348
274 1 0.517336 0.705817 0.616351
301 2 0.993839 0.580715 0.802889
45 1 0.739158 0.595463 0.761603
142 1 0.601231 0.624117 0.832935
190 1 0.738451 0.681391 0.902549
349 2 0.497239 0.596475 0.972381
123 1 0.889353 0.671215 0.755473
322 2 0.835059 0.593825 0.847776
254 1 0.919423 0.651512 0.939977
328 2 0.850886 0.747661 0.850263
323 2 0.534006 0.982056 0.82092
275 1 0.518178 0.885052 0.748149
265 1 0.634787 0.790227 0.854676
183 1 0.646972 0.955386 0.868413
189 1 0.789373 0.930477 0.802593
336 2 0.914921 0.960808 0.778265
40 1 0.890271 0.813411 0.981769
342 2 0.864199 0.916818 0.917579
95 1 0.911122 0.831476 0.774024
224 1 0.748745 0.841578 0.937706
151 1 0.510501 0.869398 0.907371
44 1 0.895586 0.512067 0.770921
131 1 0.845241 0.738168 0.505216
79 1 0.741309 0.504592 0.554697
219 1 0.989091 0.934313 0.674543
319 2 0.575865 0.517711 0.775566
188 1 0.634698 0.61331 0.985688
ITEM: TIMESTEP
2000000
ITEM: NUMBER OF ATOMS
360
ITEM: BOX BOUNDS pp pp pp
0.0000000000000000e+00 6.6943295008216896e+00
0.0000000000000000e+00 6.6943295008216896e+00
0.0000000000000000e+00 6.6943295008216896e+00
ITEM: ATOMS id type xs ys zs
32 1 0.139529 0.115442 0.138182
174 1 0.229189 0.225032 0.0786484
314 2 0.114767 0.192842 0.0137809
103 1 0.277353 0.370211 0.448588
333 2 0.456269 0.320674 0.321383
308 2 0.228842 0.10907 0.0286152
98 1 0.459877 0.160763 0.100955
88 1 0.307844 0.0828677 0.140077
323 2 0.356025 0.219672 0.0426653
353 2 0.429095 0.019574 0.177816
292 2 0.28029 0.14858 0.252646
80 1 0.383094 0.422832 0.35417
118 1 0.0753417 0.269852 0.12418
216 1 0.0821383 0.436875 0.0867038
305 2 0.198926 0.361174 0.118046
27 1 0.237809 0.474444 0.0607918
93 1 0.222727 0.259361 0.226035
136 1 0.144007 0.389113 0.260772
15 1 0.319586 -0.00115632 0.296579
197 1 0.367379 0.261132 0.161234
266 1 0.294247 0.395811 0.198159
24 1 0.326219 0.353628 0.0358618
54 1 0.444516 0.396727 0.21687
255 1 0.386111 0.498572 0.115875
85 1 0.00653405 0.0902008 0.241457
249 1 0.160985 0.115896 0.305884
324 2 0.039576 0.130011 0.357105
192 1 0.0700319 0.233641 0.278626
104 1 0.117974 0.126428 0.465264
287 1 0.179669 0.24955 0.374304
48 1 0.340317 0.268052 0.321426
59 1 0.312813 0.129064 0.372544
185 1 0.414792 0.127903 0.252367
156 1 0.488313 0.201756 0.38712
175 1 0.489803 0.0339874 0.348124
69 1 0.468705 0.348255 0.460345
296 2 0.266236 0.409378 0.318983
187 1 0.0417815 0.256097 0.441519
221 1 0.13683 0.400628 0.417442
163 1 0.500187 0.329042 0.0882469
64 1 0.421346 0.0826999 0.474778
62 1 0.436609 0.00413147 0.0546252
356 2 0.2755 0.0142372 0.423044
184 1 0.35509 0.240761 0.470272
161 1 0.0042717 0.45931 0.214616
206 1 0.00536244 0.368777 0.353841
230 1 0.110978 0.0693341 0.621274
318 2 0.165116 0.182729 0.611116
238 1 0.0166776 0.18774 0.590136
164 1 0.161538 0.339642 0.99581
237 1 0.437741 0.47462 0.819054
22 1 0.272794 0.121401 0.521011
154 1 0.252004 0.029868 0.655635
352 2 0.37225 0.0890213 0.605003
234 1 0.303443 0.16663 0.6802
39 1 0.446418 0.110372 0.700123
270 1 0.451569 0.189063 0.577518
212 1 0.197877 0.268307 0.526705
139 1 0.217216 0.298148 0.688019
100 1 0.0711797 0.349603 0.568879
309 2 0.112406 0.399488 0.681887
222 1 0.216459 0.418573 0.585236
17 1 0.0665705 0.300385 0.751714
325 2 0.465955 0.396703 0.919594
258 1 0.320408 0.426652 0.709688
319 2 0.437306 0.397398 0.69718
179 1 0.353398 0.315304 0.595417
144 1 0.43341 0.272251 0.713104
205 1 0.354203 0.491245 0.515797
359 2 0.235961 0.250725 0.803607
168 1 0.439015 0.271825 0.964496
288 1 0.158637 0.157668 0.745837
280 1 0.116027 0.233533 0.887087
21 1 0.217369 0.0914777 0.892014
95 1 0.0772635 0.0484265 0.850044
330 2 0.0424517 0.0425675 0.51718
114 1 0.260345 0.235722 0.937642
226 1 0.354115 0.116898 0.967565
133 1 0.358541 0.176579 0.827432
298 2 0.119466 0.483636 0.523528
348 2 0.336618 0.0632484 0.759951
355 2 0.262311 0.400875 0.929352
173 1 0.0640576 0.468923 0.810744
102 1 0.18699 0.36499 0.835422
297 2 0.0872151 0.380278 0.909317
42 1 0.480928 0.442178 0.591514
281 1 0.352641 0.349046 0.843216
1 1 0.364867 0.479913 0.953506
55 1 0.46867 0.0673849 0.858903
67 1 0.00379833 0.290923 0.986769
219 1 0.00337736 0.118811 0.732609
171 1 0.113071 0.0618723 1.00126
218 1 0.0432032 0.619628 0.188271
61 1 0.13929 0.618916 0.0628958
28 1 0.192735 0.709864 0.182407
303 2 0.25044 0.70646 0.0620212
351 2 0.0609433 0.731173 0.122808
19 1 0.178855 0.536138 0.214585
285 1 0.432099 0.638323 0.182331
134 1 0.283174 0.608204 0.125914
290 2 0.443652 0.754721 0.0390869
231 1 0.394286 0.632041 0.0136129
53 1 0.0535027 0.840607 0.0569796
167 1 0.101615 0.854042 0.206877
33 1 0.218338 0.850072 0.0744758
14 1 0.188631 0.978056 0.181949
126 1 0.265958 0.996018 0.0205704
246 1 0.344259 0.7738 0.135567
306 2 0.46758 0.759499 0.199513
327 2 0.244899 0.831122 0.213665
81 1 0.474929 0.859614 0.104321
77 1 0.332869 0.924549 0.158662
182 1 0.484107 0.925916 0.235932
273 1 0.398452 0.922842 0.431544
317 2 0.133797 0.941004 0.0180507
245 1 0.0693331 0.509923 0.33698
301 2 0.0858067 0.72297 0.26264
135 1 0.0689342 0.597667 0.466876
52 1 0.160245 0.633818 0.318571
357 2 0.101044 0.71518 0.406068
130 1 0.238219 0.518941 0.405458
37 1 0.233411 0.688162 0.456208
310 2 0.333391 0.893199 0.0398344
13 1 0.319292 0.526491 0.266983
202 1 0.309591 0.694872 0.29108
49 1 0.373169 0.595525 0.403766
236 1 0.473005 0.710277 0.317111
94 1 -0.00394136 0.655991 0.339851
141 1 0.181433 0.941196 0.350836
203 1 0.199862 0.785827 0.33247
340 2 0.12096 0.870164 0.435966
3 1 0.0563787 0.821749 0.346307
228 1 0.0498227 0.989461 0.133556
326 2 0.0897666 0.998804 0.261628
277 1 0.242308 0.858511 0.476175
76 1 0.3709 0.757986 0.443807
242 1 0.3595 0.835513 0.290536
18 1 0.47199 0.555101 0.302588
79 1 0.50015 0.506172 0.442086
213 1 0.0488157 0.987707 0.391321
229 1 0.129063 0.671047 0.67174
207 1 0.201762 0.584497 0.556183
350 2 0.0682545 0.58116 0.735101
128 1 0.0435951 0.524205 0.620223
152 1 0.323391 0.769737 0.979399
201 1 0.248308 0.741416 0.600422
253 1 0.405732 0.550008 0.679781
274 1 0.276404 0.634123 0.72674
224 1 0.401873 0.714147 0.703374
265 1 0.36148 0.648145 0.56035
300 2 0.455538 0.561402 0.56138
289 2 0.293049 0.531262 0.631602
282 1 0.049408 0.960693 0.692654
339 2 0.439396 0.952156 0.826649
194 1 0.158976 0.87108 0.619481
220 1 0.125697 0.767488 0.515865
172 1 0.0186968 0.794866 0.630988
20 1 0.404885 0.956725 0.704669
9 1 0.285392 0.859056 0.711606
211 1 0.376415 0.828044 0.591401
264 1 0.337694 0.972092 0.556501
6 1 0.490759 0.94932 0.583711
254 1 0.134846 0.620292 0.837217
223 1 0.032489 0.623876 0.948121
244 1 0.142619 0.744698 0.959514
66 1 0.0212982 0.707035 0.778439
68 1 0.24643 0.624557 0.951405
47 1 0.253821 0.747416 0.831315
193 1 0.372886 0.649545 0.853955
312 2 0.476926 0.563539 0.911001
74 1 0.425852 0.903163 0.949757
259 1 0.133111 0.818247 0.755935
176 1 0.029766 0.905797 0.528474
261 1 0.184838 0.963619 0.778595