ITEM: TIMESTEP
0
ITEM: NUMBER OF ATOMS
360
ITEM: BOX BOUNDS pp pp pp
0.0000000000000000e+00 6.6943295008216896e+00
0.0000000000000000e+00 6.6943295008216896e+00
0.0000000000000000e+00 6.6943295008216896e+00
ITEM: ATOMS id type xs ys zs
3 1 0.144881 0.0974644 0.0734396
272 1 0.156856 0.210581 0.179804
347 2 0.0431833 0.176886 0.239072
31 1 0.00130183 0.039454 0.0987737
311 2 0.155611 0.24358 0.05369
182 1 0.00836105 0.242527 0.123913
333 2 0.0434486 0.144007 0.0206716
12 1 0.253154 0.0855702 0.195742
234 1 0.276411 0.213117 0.056679
95 1 0.408732 0.174265 0.126092
250 1 0.326256 0.0619664 0.0575568
307 2 0.286526 0.216935 0.231376
358 2 0.401669 0.205592 0.00705051
313 2 0.365574 0.105605 0.236475
360 2 0.449929 0.0520831 0.104534
236 1 0.496635 0.0933438 0.213964
127 1 0.118538 0.351347 0.104743
304 2 0.0895657 0.330238 0.231311
118 1 0.158677 0.443894 0.231305
269 1 0.214499 0.470731 0.0754588
184 1 0.47331 0.453295 0.20925
63 1 0.284905 0.33939 0.152872
245 1 0.43751 0.320141 0.14916
273 1 0.408263 0.466912 0.0633904
43 1 0.32098 0.494624 0.195185
227 1 0.353884 0.328282 0.00951712
140 1 0.0655521 0.0901753 0.453291
216 1 0.134079 0.101616 0.298284
257 1 0.188848 0.182275 0.431601
155 1 0.0814045 0.242964 0.34984
91 1 0.203613 0.0259642 0.449392
302 2 0.209674 0.00641344 0.288116
241 1 0.439105 0.198931 0.453709
186 1 0.472505 0.039227 0.442538
279 1 0.308563 0.168705 0.353346
9 1 0.428971 0.216347 0.270243
317 2 0.42259 0.119338 0.355352
55 1 0.333804 0.00857441 0.348445
350 2 0.489759 0.00551811 0.30341
351 2 0.0364688 0.379893 0.467173
221 1 0.206554 0.307885 0.297183
200 1 0.154378 0.334918 0.443096
106 1 0.245517 0.445005 0.368245
230 1 0.0615105 0.399949 0.34152
160 1 0.00603068 0.250709 0.486209
171 1 0.121427 0.482206 0.459729
207 1 0.352029 0.357397 0.284909
58 1 0.320819 0.2978 0.42999
212 1 0.388797 0.444319 0.445608
149 1 0.483711 0.32573 0.382163
310 2 0.428837 0.339303 0.489167
240 1 0.133327 0.181817 0.699126
166 1 0.164399 0.0916101 0.577405
139 1 0.159613 0.0173573 0.718077
334 2 0.029858 0.205406 0.619493
233 1 0.00543859 0.0788625 0.615861
113 1 0.339462 0.082811 0.516524
177 1 0.285839 0.161846 0.677922
187 1 0.448513 0.143224 0.642003
36 1 0.158133 0.258765 0.572845
211 1 0.106055 0.404677 0.581213
315 2 0.160226 0.441276 0.688824
235 1 0.0946834 0.33679 0.71364
142 1 0.403925 0.270511 0.727414
276 1 0.25447 0.322099 0.684898
220 1 0.352249 0.26162 0.576121
1 1 0.41992 0.404553 0.594097
163 1 0.259161 0.390329 0.535674
319 2 0.358552 0.3954 0.73305
100 1 0.488352 0.393755 0.734101
309 2 0.494629 0.48769 0.523304
136 1 0.300322 0.483131 0.654105
57 1 0.0855064 0.0569069 0.93125
338 2 0.233055 0.115837 0.990311
54 1 0.202349 0.0963565 0.844371
112 1 0.139472 0.199901 0.946627
301 2 0.0928541 0.188167 0.82399
205 1 0.0312661 0.0802456 0.760692
10 1 0.454103 0.115724 0.938439
65 1 0.318778 0.196409 0.906218
42 1 0.387819 0.129828 0.783977
262 1 0.335504 0.0264527 0.883296
204 1 0.0606269 0.421921 0.971471
81 1 0.203229 0.334431 0.96123
20 1 0.207562 0.257909 0.817212
61 1 0.223003 0.434512 0.794915
158 1 0.0734875 0.474335 0.827046
203 1 0.0529099 0.308727 0.858752
48 1 0.318924 0.474473 0.94154
247 1 0.328676 0.342636 0.840632
109 1 0.457395 0.261924 0.879094
16 1 0.459378 0.413122 0.909503
56 1 0.196568 0.59143 0.187886
284 1 0.13492 0.642136 0.0382464
249 1 0.0778989 0.521744 0.0983038
188 1 0.0630912 0.673067 0.164111
283 1 0.21475 0.731459 0.143879
114 1 0.371429 0.726583 0.0797261
120 1 0.330872 0.664487 0.237462
175 1 0.2883 0.597061 0.033318
263 1 0.44057 0.597461 0.146914
49 1 0.492332 0.712315 0.226859
348 2 0.104903 0.982898 0.0312392
296 2 0.0162099 0.778082 0.222473
67 1 0.162014 0.88058 0.08952
28 1 0.119751 0.848149 0.242596
326 2 0.23913 0.979876 0.107172
119 1 0.0606873 0.783703 0.0369859
11 1 0.125269 0.999438 0.187267
156 1 0.26556 0.91994 0.230532
25 1 0.404623 0.970968 0.1901
45 1 0.322211 0.895095 0.0731625
96 1 0.387212 0.820137 0.203077
329 2 0.433878 0.830572 0.00821696
26 1 0.0684799 0.566366 0.268302
215 1 0.19697 0.59429 0.353222
7 1 0.0293362 0.610774 0.422349
151 1 0.0936138 0.708102 0.311316
153 1 0.133896 0.737123 0.459193
224 1 0.235739 0.744184 0.319126
314 2 0.167159 0.614586 0.483935
191 1 0.261279 0.541835 0.486324
18 1 0.286568 0.70821 0.474364
343 2 0.324504 0.60228 0.391827
285 1 0.410303 0.541366 0.315633
162 1 0.390763 0.725114 0.366708
289 2 0.496158 0.686011 0.456468
323 2 0.107683 0.840676 0.370765
143 1 0.0938574 0.962393 0.342113
30 1 0.231237 0.88163 0.381784
275 1 0.0811916 0.93565 0.493481
252 1 0.434863 0.796236 0.49668
47 1 0.354685 0.933493 0.482652
170 1 0.415303 0.878343 0.343347
352 2 0.330737 0.824809 0.434041
251 1 0.194716 0.698676 0.609911
209 1 0.0626118 0.632109 0.564562
97 1 0.0231171 0.673566 0.729792
6 1 0.178458 0.542101 0.605167
144 1 0.0505402 0.505896 0.681032
201 1 0.306925 0.650437 0.711831
185 1 0.344639 0.749311 0.608922
318 2 0.283965 0.618631 0.587751
340 2 0.429066 0.725921 0.701175
70 1 0.443681 0.55318 0.645112
15 1 0.49746 0.694497 0.606128
256 1 0.408772 0.603181 0.501088
92 1 0.0437277 0.793391 0.577943
277 1 0.20504 0.849908 0.546864
126 1 0.0639094 0.927351 0.646028
77 1 0.137375 0.810593 0.704601
295 2 0.371127 0.886211 0.594654
32 1 0.27676 0.863147 0.691508
105 1 0.469668 0.835942 0.659186
72 1 0.417368 0.95696 0.725592
134 1 0.467138 0.995628 0.589081
189 1 0.261461 0.987322 0.604253
336 2 0.293495 0.982422 0.737417
147 1 0.178372 0.530595 0.938828
264 1 0.178976 0.587095 0.77591
181 1 0.0637285 0.626441 0.886237
335 2 0.119692 0.731969 0.939993
2 1 0.193014 0.744971 0.832114
327 2 0.0363295 0.542873 0.979255
66 1 0.38209 0.507122 0.792879
22 1 0.444316 0.643002 0.800123
130 1 0.3872 0.71135 0.933814
51 1 0.291951 0.607087 0.866166
90 1 0.439502 0.570443 0.945632
161 1 0.0303318 0.777454 0.858939
14 1 0.226736 0.983305 0.978896
53 1 0.00172766 0.925239 0.972808
141 1 0.13439 0.869748 0.932918
225 1 0.21494 0.912818 0.821565
157 1 0.0715679 0.928112 0.798666
268 1 0.239941 0.761122 0.982583
168 1 0.479682 0.823489 0.8974
246 1 0.359967 0.77983 0.807865
116 1 0.328525 0.877141 0.921622
288 1 0.439676 0.955883 0.983376
38 1 0.490952 0.986574 0.844106
194 1 0.660584 0.234288 0.0634766
148 1 0.565646 0.228918 0.204532
306 2 0.623478 0.115096 0.193188
23 1 0.695408 0.0714044 0.0907748
270 1 0.547872 0.129997 0.0834673
244 1 0.907216 0.148595 0.204079
29 1 0.774477 0.193841 0.146949
178 1 0.899875 0.156594 0.033313
265 1 0.849557 0.0282265 0.107841
237 1 0.728352 0.331745 0.200912
99 1 0.589759 0.365994 0.119376
332 2 0.662206 0.471517 0.136574
355 2 0.524172 0.348335 0.247999
197 1 0.500223 0.27522 0.0266809
75 1 0.751528 0.42488 0.0479797
44 1 0.994011 0.421651 0.199886
39 1 0.867523 0.337748 0.133162
8 1 0.91644 0.47113 0.0339881
35 1 0.786391 0.473563 0.20746
354 2 0.994129 0.377056 0.078643
195 1 0.632172 0.00969581 0.258819
172 1 0.560485 0.171081 0.345737
102 1 0.642974 0.0736896 0.416934
223 1 0.707679 0.178822 0.296936
50 1 0.948334 0.0152139 0.257544
217 1 0.791996 0.0549737 0.258359
110 1 0.966793 0.14006 0.362303
228 1 0.857322 0.209492 0.439865
271 1 0.790268 0.0755366 0.412076
356 2 0.828819 0.162127 0.316358
133 1 0.747055 0.316281 0.463311
266 1 0.597928 0.250711 0.473216
199 1 0.532958 0.470577 0.395284
359 2 0.644652 0.421832 0.419385
206 1 0.630638 0.438988 0.257433
73 1 0.645912 0.310135 0.339153
59 1 0.965277 0.28059 0.271814
308 2 0.888616 0.403077 0.281573
85 1 0.921392 0.366208 0.426132
208 1 0.784488 0.439526 0.359301
17 1 0.823599 0.289003 0.316153
274 1 0.654516 0.189115 0.649824
13 1 0.572453 0.0638525 0.720459
104 1 0.559282 0.122773 0.549384
137 1 0.729135 0.168802 0.514763
239 1 0.668643 0.024323 0.577643
27 1 0.873869 0.0514123 0.533211
68 1 0.781473 0.075836 0.668772
34 1 0.885472 0.192354 0.587569
291 2 0.912175 0.124172 0.705285
24 1 0.809071 0.211956 0.728335
214 1 0.978517 0.231473 0.740089
231 1 0.642451 0.372466 0.683448
297 2 0.654766 0.28492 0.577944
21 1 0.580368 0.393756 0.519425
198 1 0.524885 0.278978 0.617626
330 2 0.903719 0.304415 0.679265
150 1 0.776866 0.321339 0.618567
33 1 0.962259 0.357923 0.592846
321 2 0.860834 0.430859 0.651411
243 1 0.831627 0.44307 0.517397
132 1 0.94459 0.404766 0.737793
320 2 0.862424 0.312597 0.529286
219 1 0.554324 0.220352 0.762163
299 2 0.525259 0.115877 0.835648
164 1 0.694487 0.12948 0.791479
135 1 0.608868 0.21722 0.927368
80 1 0.734754 0.125043 0.948195
258 1 0.605989 0.0428754 0.914608
316 2 0.65424 0.00103047 0.784359
305 2 0.973971 0.0124654 0.8642
339 2 0.843769 0.186751 0.917315
145 1 0.974083 0.172421 0.89455
192 1 0.873614 0.0854332 0.819755
174 1 0.888981 0.0340737 0.959002
196 1 0.634263 0.37017 0.979004
312 2 0.677762 0.483961 0.772537
353 2 0.690319 0.257024 0.751132
259 1 0.73199 0.282818 0.855308
294 2 0.70183 0.406975 0.871602
107 1 0.580459 0.350348 0.838991
37 1 0.772107 0.390479 0.760341
79 1 0.819718 0.41317 0.915567
222 1 0.942347 0.304041 0.99624
115 1 0.890308 0.296529 0.849762
298 2 0.961292 0.407783 0.8825
82 1 0.787131 0.273577 0.997363
159 1 0.513875 0.67978 0.0489582
89 1 0.583206 0.58317 0.200409
176 1 0.714564 0.577295 0.102524
169 1 0.642639 0.709275 0.131444
346 2 0.702114 0.558034 0.234938
124 1 0.557288 0.524037 0.0437474
292 2 0.63483 0.635657 0.00253295
202 1 0.770142 0.722057 0.0408965
300 2 0.835806 0.620597 0.0926255
74 1 0.798063 0.678106 0.191554
254 1 0.961801 0.623584 0.0279389
282 1 0.916711 0.570138 0.167153
260 1 0.924906 0.737361 0.12876
344 2 0.606448 0.784943 0.227681
117 1 0.686309 0.865807 0.0880432
86 1 0.690496 0.869894 0.239533
183 1 0.534935 0.820288 0.110746
290 2 0.739678 0.964343 0.164446
253 1 0.566526 0.984191 0.125145
152 1 0.989843 0.888931 0.145408
342 2 0.772855 0.961568 0.0124702
261 1 0.865225 0.884544 0.0453966
190 1 0.81958 0.831752 0.18602
357 2 0.88329 0.933594 0.19349
210 1 0.538594 0.63833 0.346486
179 1 0.655401 0.553987 0.361333
229 1 0.665433 0.69795 0.294423
41 1 0.720973 0.66618 0.461537
349 2 0.818956 0.542135 0.448236
19 1 0.947578 0.676107 0.288202
138 1 0.789251 0.601612 0.326367
122 1 0.887521 0.65787 0.448951
226 1 0.927893 0.510971 0.34786
341 2 0.709457 0.978492 0.373743
128 1 0.58093 0.941353 0.387962
278 1 0.535854 0.884782 0.25238
255 1 0.689384 0.820477 0.40083
232 1 0.551023 0.792439 0.378483
180 1 0.987668 0.860412 0.321644
71 1 0.822289 0.917509 0.315847
60 1 0.76549 0.945642 0.48538
167 1 0.808362 0.753816 0.327544
324 2 0.884318 0.841268 0.397
173 1 0.988378 0.763268 0.431299
267 1 0.940825 0.988937 0.406538
88 1 0.823604 0.781891 0.499483
328 2 0.550853 0.627034 0.706572
64 1 0.649306 0.656921 0.62333
40 1 0.691963 0.514845 0.512918
4 1 0.600258 0.515165 0.632289
78 1 0.745373 0.504058 0.665062
52 1 0.564931 0.598142 0.501393
331 2 0.757116 0.735015 0.596619
103 1 0.89943 0.550904 0.69533
5 1 0.912846 0.696967 0.614859
131 1 0.804645 0.60455 0.574461
238 1 0.795805 0.666751 0.710731
62 1 0.976345 0.502717 0.523775
242 1 0.602406 0.755971 0.509814
111 1 0.683428 0.763418 0.719642
76 1 0.591518 0.919558 0.676958
303 2 0.587266 0.795233 0.625047
108 1 0.700989 0.85145 0.588594
165 1 0.56688 0.898727 0.533035
287 1 0.911439 0.972224 0.697243
84 1 0.753365 0.930094 0.722048
146 1 0.834008 0.827157 0.648108
193 1 0.955757 0.828119 0.724073
218 1 0.932874 0.9074 0.549628
325 2 0.81135 0.950522 0.608761
248 1 0.656558 0.616704 0.769918
125 1 0.678338 0.534103 0.912575
87 1 0.564938 0.636213 0.885434
337 2 0.621868 0.737058 0.847902
123 1 0.735301 0.687769 0.883284
93 1 0.550696 0.514669 0.794538
345 2 0.549995 0.500181 0.915939
101 1 0.819557 0.580432 0.971124
213 1 0.796364 0.528 0.811248
154 1 0.933898 0.525469 0.890927
280 1 0.888905 0.661946 0.82181
322 2 0.991144 0.550938 0.781176
281 1 0.545316 0.752538 0.753227
293 2 0.510247 0.872671 0.774028
94 1 0.62382 0.766596 0.971772
69 1 0.592413 0.913066 0.975233
98 1 0.621477 0.881766 0.828068
121 1 0.748588 0.992514 0.876904
286 1 0.921956 0.759429 0.958637
83 1 0.826038 0.799471 0.808196
46 1 0.755634 0.855716 0.935896
129 1 0.879984 0.924244 0.849837
ITEM: TIMESTEP
100000
ITEM: NUMBER OF ATOMS
360
ITEM: BOX BOUNDS pp pp pp
0.0000000000000000e+00 6.6943295008216896e+00
0.0000000000000000e+00 6.6943295008216896e+00
0.0000000000000000e+00 6.6943295008216896e+00
ITEM: ATOMS id type xs ys zs
221 1 0.149601 0.217384 0.208275
50 1 0.0912595 0.0979724 0.128678
45 1 0.0913566 0.249789 0.0634954
354 2 -0.00983451 0.191171 0.126411
347 2 0.193128 0.0491678 0.19772
269 1 0.214891 0.480352 0.116689
28 1 0.269971 0.0458184 0.0997633
313 2 0.265393 0.179996 0.125108
12 1 0.395418 0.0403801 0.192677
250 1 0.369824 0.163049 0.0194545
95 1 0.382927 0.22229 0.169459
204 1 0.033116 0.423333 0.085215
230 1 0.148701 0.383164 0.218872
315 2 0.145825 0.383197 0.0500172
244 1 -0.00148409 0.166292 0.255211
179 1 0.468534 0.449027 0.300725
81 1 0.243697 0.303639 0.0953205
234 1 0.413942 0.309761 0.0465934
227 1 0.371852 0.415481 0.147681
197 1 0.466859 0.473339 0.0329239
207 1 0.457766 0.299082 0.285296
267 1 0.0569586 0.154327 0.404294
143 1 0.0984907 0.0389548 0.287589
34 1 0.0799399 0.297219 0.471401
216 1 0.215535 0.092084 0.416709
155 1 0.186618 0.224423 0.358625
302 2 0.182272 0.185256 0.498401
199 1 0.465572 0.134099 0.449608
317 2 0.470207 0.232217 0.386884
200 1 0.342055 0.211705 0.360255
189 1 0.347891 0.0541958 0.358351
257 1 0.27983 0.138535 0.250325
9 1 0.450023 0.148281 0.287375
171 1 0.0605262 0.467707 0.397872
59 1 0.048755 0.296653 0.323776
201 1 0.299834 0.451011 -0.000984875
106 1 0.206392 0.424027 0.366811
210 1 0.437802 0.500676 0.447722
289 2 0.193123 0.501172 0.464062
63 1 0.277219 0.312211 0.247524
212 1 0.35896 0.371221 0.374562
43 1 0.312693 0.477029 0.269222
160 1 0.243716 0.302213 0.481914
118 1 0.0135796 0.446643 0.2353
127 1 0.0140084 0.306825 0.168496
325 2 0.0979585 0.0637909 0.478111
11 1 0.429856 -0.00380476 0.041591
279 1 0.210103 0.169012 0.00904676
139 1 0.193376 0.0857407 0.579988
177 1 0.243659 0.108691 0.746737
140 1 0.0962886 0.176567 0.716079
228 1 0.0533255 0.153926 0.560681
66 1 0.452075 0.282755 0.892201
310 2 0.32028 0.15644 0.639184
241 1 0.388152 0.0410404 0.60873
198 1 0.456787 0.187604 0.602328
48 1 0.294898 0.359234 0.868852
91 1 0.321037 0.144071 0.5139
220 1 0.188112 0.239997 0.60797
36 1 0.0556506 0.317539 0.644281
191 1 0.157784 0.418326 0.547517
211 1 0.0462841 0.467035 0.653926
235 1 0.174613 0.388735 0.703141
358 2 0.297667 0.376969 0.749568
353 2 0.264243 0.366708 0.603403
21 1 0.440731 0.425424 0.609353
142 1 0.360914 0.296456 0.655984
256 1 0.306661 0.458947 0.528841
22 1 0.511356 0.489134 0.869163
54 1 0.031667 0.0709058 0.811182
272 1 0.0407141 0.117074 0.979462
65 1 0.145856 0.155328 0.870026
301 2 0.0592658 0.244661 0.937484
357 2 0.180704 0.051168 0.970868
307 2 0.325627 0.270072 0.963338
300 2 0.0344718 0.495609 0.966099
219 1 0.407374 0.127605 0.747701
42 1 0.458431 0.0348361 0.883872
247 1 0.31177 0.180951 0.871004
338 2 0.433072 0.157336 0.903793
240 1 0.0767523 0.296253 0.809074
264 1 0.16412 0.456035 0.953178
299 2 0.164107 0.390177 0.847796
20 1 0.17117 0.304403 0.945424
203 1 0.0640567 0.464964 0.819552
147 1 0.0118316 0.369902 0.933933
107 1 0.433595 0.390433 0.774929
306 2 0.372521 0.258617 0.779677
100 1 0.35192 0.504609 0.854416
276 1 0.234217 0.259836 0.755726
283 1 0.306787 0.0337718 0.942
345 2 0.418385 0.400665 0.949581
163 1 0.313428 0.487982 0.682238
58 1 0.388401 0.287175 0.508468
334 2 -0.00624336 0.102804 0.66783
233 1 0.00141523 0.00565937 0.579625
126 1 0.111109 0.0159748 0.690052
14 1 0.179287 -0.00448036 0.851996
318 2 0.183772 0.505691 0.637226
327 2 0.130459 0.76276 0.159165
249 1 0.0868681 0.575418 0.0587448
188 1 0.124157 0.725047 0.283538
304 2 0.0788109 0.605701 0.182695
90 1 0.188229 0.659772 0.138974
151 1 0.00725017 0.700443 0.131898
175 1 0.336293 0.711888 0.0738117
16 1 0.35553 0.572739 0.118786
288 1 0.356937 0.862315 0.03758
56 1 0.147545 0.951175 0.145518
284 1 0.073372 0.846977 0.0887239
263 1 0.25333 0.808282 0.174396
113 1 0.456891 0.993484 0.474707
333 2 0.0729544 0.975478 0.049831
18 1 0.268162 0.846384 0.489871
356 2 0.277288 0.919604 0.136452
51 1 0.203627 0.7716 0.0281961
156 1 0.393691 0.892547 0.205585
87 1 0.492597 0.669488 0.0862324
162 1 0.396542 0.730843 0.220247
226 1 0.0102223 0.58834 0.311638
215 1 0.259165 0.693241 0.441524
7 1 0.150053 0.599381 0.395124
26 1 0.152806 0.530359 0.2529
30 1 0.475939 0.981989 0.327803
148 1 0.490431 0.532206 0.175266
273 1 0.418159 0.600485 0.300811
184 1 0.262887 0.628665 0.275314
285 1 0.297612 0.55924 0.405563
185 1 0.40436 0.64547 0.463907
224 1 0.251702 0.801138 0.319592
31 1 0.0638367 0.887254 0.270201
146 1 0.0437901 0.965259 0.433853
120 1 0.144252 0.803762 0.428596
153 1 0.189628 0.946054 0.396596
47 1 0.48391 0.734238 0.372104
209 1 0.0230202 0.695356 0.446137
277 1 0.384833 0.857731 0.379416
343 2 0.336995 0.707637 0.33758
55 1 0.264843 0.9652 0.257187
340 2 0.394107 0.78495 0.491935
323 2 0.0270218 0.832555 0.388146
225 1 0.302483 0.991964 0.497247
6 1 0.217077 0.602574 0.555343
328 2 0.179985 0.729188 0.707192
103 1 0.127812 0.608949 0.691924
258 1 0.487495 0.996777 0.733571
144 1 0.0742913 0.554688 0.530908
251 1 0.160493 0.747812 0.56814
116 1 0.439085 0.766901 0.947972
70 1 0.397945 0.581381 0.599546
281 1 0.436833 0.702784 0.695189
136 1 0.280814 0.636218 0.715131
305 2 0.0107711 0.852706 0.969027
105 1 0.323401 0.72054 0.589124
32 1 0.177959 0.865735 0.762717
92 1 0.141508 0.927139 0.548448
166 1 0.262134 0.953821 0.652657
3 1 0.114069 0.85776 0.900374
5 1 0.0298683 0.709925 0.641357
67 1 0.0239406 0.971664 0.922524
295 2 0.374503 0.916301 0.700661
314 2 0.228684 0.831545 0.623337
72 1 0.314341 0.805157 0.722788
165 1 0.389149 0.874292 0.585674
187 1 0.328761 0.982176 0.794448
181 1 0.0850609 0.59828 0.901061
2 1 0.198532 0.705301 0.850416
157 1 0.0660932 0.743151 0.791576
350 2 0.503869 0.947282 0.584188
61 1 0.215259 0.536274 0.805938
77 1 0.0455008 0.864018 0.680283
141 1 0.287928 0.851744 0.876743
246 1 0.233795 0.600016 0.99626
1 1 0.438853 0.566306 0.761757
159 1 0.35976 0.697452 0.825821
293 2 0.299459 0.73693 0.936027
130 1 0.3888 0.605103 0.964328
335 2 0.287979 0.615257 0.875637
38 1 0.443128 0.860684 0.812832
336 2 0.382894 0.926184 0.922221
348 2 0.0627834 0.934768 0.797495
74 1 0.0547098 0.727298 0.977183
275 1 0.016524 0.834104 0.512605
268 1 0.203242 0.930245 1.00875
237 1 0.664186 0.2241 0.108668
25 1 0.661208 0.0587101 0.125736
352 2 0.700653 0.142855 0.21624
206 1 0.523831 0.349041 0.414001
253 1 0.502624 0.133233 0.136564
99 1 0.612977 0.472205 0.0856754
178 1 0.882518 0.236955 0.176444
29 1 0.928858 0.099512 0.0923025
186 1 0.603144 0.0361969 0.443129
112 1 0.92911 0.242157 0.00942081
222 1 0.792494 0.158595 0.0469071
316 2 0.836021 0.01063 0.0415478
17 1 0.717869 0.384037 0.15499
332 2 0.662728 0.339976 0.0471611
245 1 0.523167 0.33516 0.144624
39 1 0.73733 0.254798 0.275088
271 1 0.875568 0.301791 0.320959
75 1 0.864802 0.399896 0.196005
8 1 0.887213 0.449053 0.0296375
82 1 0.812074 0.312302 0.0664814
172 1 0.597097 0.184362 0.489182
266 1 0.815474 0.346186 0.458266
194 1 0.595622 0.205621 0.243536
133 1 0.771563 0.408001 0.320734
309 2 0.553996 0.134017 0.360367
223 1 0.698074 0.141827 0.370746
149 1 0.598667 0.058342 0.266561
290 2 0.963754 0.0929116 0.472834
346 2 0.795218 0.230885 0.390982
85 1 0.925544 0.228273 0.444411
217 1 0.84623 0.135508 0.268961
110 1 0.84246 0.0943757 0.426006
180 1 0.950502 0.0446952 0.346854
351 2 0.959983 0.354656 0.407105
71 1 0.774207 -0.0060822 0.319295
229 1 0.662426 0.473032 0.417148
195 1 0.607358 0.363961 0.272219
73 1 0.674562 0.306296 0.404321
44 1 0.909379 0.473507 0.386987
326 2 0.656845 0.139425 -0.00292674
270 1 0.821771 0.00840867 0.167857
261 1 0.979477 0.00144542 0.199628
135 1 0.616325 0.207928 0.644214
104 1 0.698742 0.0807995 0.571423
13 1 0.543323 0.0649964 0.599583
102 1 0.666854 0.0799738 0.724198
329 2 0.532125 0.136814 0.699484
291 2 0.735183 0.33879 0.851226
274 1 0.779391 0.190061 0.668341
27 1 0.897335 0.117758 0.580026
214 1 0.943443 0.215821 0.696764
131 1 0.70889 0.488313 0.63208
115 1 0.854128 0.348884 0.90777
40 1 0.576496 0.451811 0.545434
359 2 0.72714 0.308341 0.660516
52 1 0.696626 0.364824 0.543053
93 1 0.61589 0.372051 0.674875
231 1 0.536838 0.304014 0.552154
125 1 0.568927 0.371766 0.977526
312 2 0.695729 0.441786 0.753562
4 1 0.804128 0.382294 0.716498
10 1 0.533996 0.197937 0.980994
331 2 0.807678 0.406121 0.575952
24 1 0.869966 0.288277 0.586104
101 1 0.776625 0.468187 0.838713
330 2 0.932604 0.365402 0.658038
321 2 0.987733 0.254185 0.550744
33 1 0.949854 0.362358 0.781193
121 1 0.555092 0.139299 0.82935
37 1 0.666912 0.241305 0.787214
243 1 0.972643 0.410298 0.523845
117 1 0.724814 0.00921281 0.980776
192 1 0.870647 0.0924522 0.752735
174 1 0.723445 0.141506 0.881959
145 1 0.948552 0.207752 0.862793
339 2 0.82862 0.205743 0.922738
57 1 0.875158 0.0824691 0.922349
259 1 0.818321 0.24815 0.801244
319 2 0.555126 0.455544 0.751414
79 1 0.617531 0.389531 0.83856
287 1 0.770377 0.00752541 0.822494
176 1 0.743035 0.43267 0.995609
294 2 0.573942 0.265442 0.888677
196 1 0.699647 0.26943 0.954973
298 2 0.88965 0.474111 0.766834
80 1 0.57004 0.0441173 0.999649
109 1 0.50599 0.264563 0.741686
158 1 0.916836 0.493 0.893769
132 1 0.889407 0.503702 0.64487
137 1 0.754492 0.20819 0.500541
202 1 0.726893 0.663128 0.190147
297 2 0.603005 0.621667 0.154449
150 1 0.6709 0.511566 0.236499
152 1 0.899403 0.905113 0.324714
89 1 0.576631 0.654318 0.270595
169 1 0.624609 0.760135 0.134675
183 1 0.495824 0.838155 0.0974853
35 1 0.651323 0.630203 0.0403548
320 2 0.795126 0.528156 0.360426
282 1 0.939898 0.597282 0.00453056
19 1 0.845626 0.693263 0.111633
182 1 0.947302 0.552124 0.157401
308 2 0.91528 0.650076 0.241881
138 1 0.832989 0.546649 0.24895
190 1 0.76215 0.852836 0.372611
173 1 0.974337 0.750059 0.293262
114 1 0.532122 0.971013 0.157895
86 1 0.639334 0.900315 0.0573735
23 1 0.685223 0.918251 0.202464
296 2 0.752169 0.790451 0.164381
46 1 0.802863 0.887091 0.0810453
260 1 0.933651 0.843296 0.175376
53 1 0.944753 0.95398 0.0561251
123 1 0.74416 0.760784 0.0202966
360 2 0.804256 0.896945 0.233078
119 1 0.908659 0.795453 0.0143102
242 1 0.704672 0.623081 0.361339
49 1 0.558231 0.578095 0.395871
232 1 0.615328 0.741864 0.440329
122 1 0.871971 0.640731 0.377145
124 1 0.762229 0.545645 0.0983454
341 2 0.755117 0.726773 0.382046
355 2 0.511256 0.750222 0.192956
88 1 0.888868 0.785646 0.417187
236 1 0.508844 0.849432 0.484908
134 1 0.744458 0.974736 0.469528
60 1 0.891322 0.950367 0.479611
278 1 0.669582 0.769194 0.288031
128 1 0.619072 0.897996 0.356418
324 2 0.655702 0.851611 0.470308
96 1 0.824406 0.761921 0.264506
170 1 0.516997 0.846401 0.269498
208 1 0.78017 0.51899 0.500936
76 1 0.581794 0.68368 0.729206
15 1 0.553208 0.555783 0.651731
344 2 0.674042 0.64949 0.641037
205 1 0.951022 0.973122 0.716823
238 1 0.648301 0.55509 0.777007
252 1 0.514194 0.695634 0.552738
311 2 0.912879 1.00661 0.829679
349 2 0.781396 0.530663 0.722313
41 1 0.796736 0.644616 0.634071
322 2 0.922812 0.635553 0.651577
62 1 0.90315 0.721284 0.549128
292 2 0.858645 0.68546 0.980152
111 1 0.722628 0.733685 0.746478
255 1 0.781751 0.835911 0.524984
84 1 0.667 0.761115 0.596304
68 1 0.63388 0.932591 0.569719
342 2 0.772053 0.806342 0.647038
239 1 0.520559 0.844061 0.668496
98 1 0.66122 0.907537 0.718935
78 1 0.923278 0.575914 0.513163
193 1 0.905356 0.866745 0.606977
83 1 0.828913 0.877027 0.759681
108 1 0.976389 0.576202 0.757214
164 1 0.619114 0.995167 0.849675
254 1 0.637749 0.516203 0.930444
64 1 0.637941 0.605889 0.521592
213 1 0.519872 0.650068 0.872474
248 1 0.690347 0.679443 0.892903
97 1 0.891238 0.748605 0.704025
161 1 0.950629 0.675438 0.879562
303 2 0.520749 0.561063 0.527476
280 1 0.814714 0.625067 0.805418
154 1 0.785885 0.583082 0.954523
265 1 0.850499 0.92616 0.933089
168 1 0.587775 0.816098 0.81367
94 1 0.596961 0.775965 0.974468
69 1 0.701874 0.869497 0.910724
262 1 0.525538 0.901822 0.952359
129 1 0.960113 0.845624 0.839288
218 1 0.790845 0.971101 0.640954
286 1 0.829112 0.767478 0.869106
337 2 0.529825 0.58329 0.989377
167 1 0.762974 0.688196 0.496395
ITEM: TIMESTEP
200000
ITEM: NUMBER OF ATOMS
360
ITEM: BOX BOUNDS pp pp pp
0.0000000000000000e+00 6.6943295008216896e+00
0.0000000000000000e+00 6.6943295008216896e+00
0.0000000000000000e+00 6.6943295008216896e+00
ITEM: ATOMS id type xs ys zs
29 1 0.157262 0.0743665 0.158094
354 2 0.198892 0.179704 0.0685015
50 1 0.0708713 0.129449 0.0383292
189 1 0.247625 0.222455 0.179292
244 1 0.0876353 0.244982 0.138307
55 1 0.317622 0.0869958 0.130066
207 1 0.404338 0.208794 0.192533
12 1 0.468363 0.122948 0.0763573
313 2 0.445213 0.0860084 0.192012
257 1 0.344772 0.231649 0.0485035
302 2 0.329172 0.378419 0.466858
34 1 0.347648 0.505279 0.413432
325 2 0.248757 -0.012186 0.223358
200 1 0.184368 0.39158 0.170845
276 1 0.0538343 0.380274 0.0771156
227 1 0.201519 0.310997 0.0511521
81 1 0.0322416 0.400238 0.245159
297 2 0.399878 0.329518 0.243422
63 1 0.335499 0.356635 0.138923
306 2 0.481162 0.248255 0.0178092
43 1 0.331494 0.257638 0.315325
298 2 0.0684584 0.262801 0.00656515
253 1 0.498381 0.342698 0.128125
228 1 0.0818346 0.240313 0.421733
290 2 0.135836 0.110394 0.397063
155 1 0.114018 0.1652 0.272708
178 1 0.0171521 0.0322048 0.281588
309 2 0.225738 0.19099 0.35105
285 1 0.285832 0.410623 0.286729
91 1 0.253729 0.0873584 0.422842
329 2 0.454824 0.181395 0.308265
225 1 0.28638 0.100575 0.276467
198 1 0.387638 0.170254 0.43499
156 1 0.434668 0.0361909 0.348022
160 1 0.251479 0.268314 0.44895
267 1 0.208554 0.41682 0.432662
118 1 0.0547311 0.389795 0.396064
221 1 0.170172 0.308074 0.305158
289 2 0.147132 0.433483 0.302607
210 1 0.463378 0.455498 0.253541
231 1 0.42229 0.362978 0.37503
148 1 0.30265 0.446056 0.0093084
197 1 0.429874 0.367153 -0.0148557
284 1 0.000662821 0.00333471 0.136987
217 1 0.175791 0.00333319 0.31504
60 1 0.0769169 0.0117252 0.44206
358 2 0.344816 0.0986516 0.0114592
214 1 0.203541 0.0598026 0.657561
21 1 0.179258 0.231666 0.656627
140 1 0.0642612 0.111421 0.665526
65 1 0.257183 0.367805 0.749111
146 1 0.154798 0.138429 0.529507
220 1 0.302302 0.155166 0.58804
216 1 0.393569 0.0493242 0.66676
121 1 0.428076 0.206404 0.674897
359 2 0.441918 0.153842 0.557695
177 1 0.299199 0.165106 0.738335
106 1 0.182263 0.473415 0.665329
78 1 0.078775 0.477347 0.527863
36 1 0.0359778 0.433246 0.665644
211 1 0.113582 0.320633 0.554857
337 2 0.127704 0.339227 0.688519
345 2 0.0316787 0.083005 0.799575
109 1 0.49519 0.316578 0.774886
191 1 0.25632 0.364048 0.592768
353 2 0.309509 0.271653 0.6575
93 1 0.391088 0.286 0.532599
332 2 0.484394 0.444414 0.751989
235 1 0.403558 0.366493 0.659187
18 1 0.377761 0.02265 0.508101
256 1 0.345474 0.493824 0.558124
107 1 0.293613 0.309862 0.916647
57 1 0.0274982 0.182224 0.882588
279 1 0.157099 0.148085 0.793629
250 1 0.0751958 0.0340816 0.900242
201 1 0.168916 0.208239 0.946268
6 1 0.0985753 0.461643 0.807516
14 1 0.248268 0.0247343 0.814959
352 2 0.377457 0.0790976 0.801294
142 1 0.29905 0.144657 0.901415
80 1 0.436224 0.055626 0.913662
328 2 0.367003 0.269661 0.784785
144 1 0.120555 0.313538 0.828056
85 1 0.0208442 0.285533 0.713552
79 1 0.153148 0.410466 0.93739
132 1 0.00718715 0.478068 0.966013
37 1 0.379794 0.414036 0.848995
95 1 0.431866 0.244956 0.897855
319 2 0.257761 0.435065 0.862189
321 2 0.0302598 0.0968907 0.530283
58 1 0.504174 0.420945 0.508407
340 2 0.227981 0.498776 0.542321
98 1 0.490404 0.144183 0.799695
28 1 0.202209 0.0679146 1.00663
61 1 0.0592897 0.661338 0.131213
269 1 0.211055 0.648483 0.169598
22 1 0.162449 0.514532 0.0544686
230 1 0.112367 0.531384 0.222645
240 1 0.0965536 0.95033 0.0204388
165 1 0.34634 0.79136 0.421553
47 1 0.438375 0.688091 0.074503
293 2 0.369204 0.619915 0.154073
90 1 0.31912 0.59628 0.0396463
184 1 0.356092 0.736194 0.215379
56 1 0.309396 0.948166 0.368225
252 1 0.495414 0.553475 0.365969
215 1 0.116672 0.765225 0.265511
264 1 0.108094 0.815681 0.0866417
323 2 -0.00225172 0.913211 0.484267
272 1 0.0965258 0.911584 0.209903
224 1 0.240251 0.946502 0.111192
89 1 0.430706 0.490662 0.105253
263 1 0.254423 0.781737 0.0972405
162 1 0.464854 0.835713 0.131185
327 2 0.356432 0.875045 0.114607
185 1 0.272427 0.863321 0.239034
128 1 0.437542 0.842424 0.295915
153 1 0.37832 0.970401 0.211095
249 1 0.0117528 0.637794 0.270283
292 2 0.140764 0.639888 0.293974
26 1 0.224319 0.550784 0.339045
188 1 0.086182 0.722536 0.416171
171 1 0.0722175 0.549109 0.389776
32 1 0.173893 0.605603 0.489056
273 1 0.493934 0.603898 0.203018
7 1 0.245356 0.707829 0.325259
143 1 0.221724 0.948507 0.500653
70 1 0.326834 0.643419 0.458393
212 1 0.362776 0.60373 0.285657
11 1 0.401774 0.984166 0.0519158
151 1 0.0292462 0.875991 0.347888
277 1 0.459708 0.90382 0.44228
300 2 0.0686215 0.59894 0.0108557
31 1 0.192009 0.83568 0.386144
294 2 0.294804 0.719155 -0.00643493
51 1 0.17974 0.673697 0.0204939
179 1 0.294287 0.504588 0.172147
318 2 0.148068 0.583674 0.606263
246 1 0.194171 0.601264 0.761334
173 1 0.139232 0.715133 0.646308
120 1 0.238348 0.759211 0.513857
5 1 0.0418455 0.580985 0.700037
27 1 0.0724833 0.971838 0.584079
136 1 0.276172 0.623756 0.617182
303 2 0.396631 0.60731 0.660392
343 2 0.48605 0.77346 0.987853
251 1 0.395805 0.721932 0.591102
180 1 0.100017 0.831266 0.525302
262 1 0.479991 0.809888 0.870215
275 1 0.058429 0.834797 0.704009
92 1 0.190956 0.899249 0.644544
335 2 0.208861 0.72713 0.759656
226 1 0.0355352 0.639405 0.549823
126 1 0.283956 0.782351 0.672758
283 1 0.315829 0.922713 0.720095
139 1 0.3452 0.876199 0.5698
233 1 0.420434 0.816331 0.71676
310 2 0.453731 0.929956 0.662268
72 1 0.506182 0.691189 0.699353
108 1 0.0815552 0.702573 0.797742
103 1 0.126641 0.585849 0.898014
159 1 0.246882 0.69626 0.878066
100 1 0.0444716 0.710007 0.954562
15 1 0.456157 0.594902 0.51749
1 1 0.343583 0.678553 0.762255
16 1 0.421234 0.680605 0.917843
48 1 0.450223 0.521082 0.933578
130 1 0.30225 0.549619 0.878838
84 1 0.457928 0.579731 0.781223
213 1 0.482293 0.517311 0.641792
77 1 0.0993755 0.983286 0.746299
268 1 0.21857 0.838851 0.956433
3 1 0.0637074 0.872125 0.859879
356 2 0.169607 0.946094 0.883712