
include ${pot}.lmp
include kalj.lmp
units lj
atom_style atomic

variable dimensions equal 3
variable density equal 1.2
variable fraca equal 0.8

dimension ${dimensions}
dimension 3
read_restart ${prevbasename}.final.lmprestart.${prevsteps}
read_restart equil/kalj_T0.7_n360_v300_180000_1.final.lmprestart.${prevsteps}
read_restart equil/kalj_T0.7_n360_v300_180000_1.final.lmprestart.180000
Reading restart file ...
  restart file = 15 Sep 2022, LAMMPS = 15 Sep 2022
  restoring atom style atomic from restart
  orthogonal box = (0 0 0) to (6.6943295 6.6943295 6.6943295)
  2 by 2 by 2 MPI processor grid
  restoring pair style lj/cut from restart
  360 atoms
  read_restart CPU = 0.258 seconds
include ${pot}_particles.lmp
include kalj_particles.lmp
mass * 1.0 #  set mass 1.0 for all types

pair_style lj/cut 2.5
#pair coeffs type1 type2 eps sigma
pair_coeff 1 1 1.0 1.00 2.5
pair_coeff 1 2 1.5 0.80 2.0
pair_coeff 2 2 0.5 0.88 2.2
pair_modify shift yes
reset_timestep 0

print "Setting up annealing run"
Setting up annealing run
dump 1 all atom ${dumptime} ${basename}.lammpstrj
dump 1 all atom 70000 ${basename}.lammpstrj
dump 1 all atom 70000 equil/kalj_T0.65_n360_v300_350000_1.lammpstrj
#dump_modify 1 sort id scale no

restart ${restarttime} ${basename}.restart
restart 350000 ${basename}.restart
restart 350000 equil/kalj_T0.65_n360_v300_350000_1.restart
restart ${steps} ${basename}.final.lmprestart
restart 350000 ${basename}.final.lmprestart
restart 350000 equil/kalj_T0.65_n360_v300_350000_1.final.lmprestart

thermo ${thermotime}
thermo 70000
timestep ${timestep}
timestep 0.003

neighbor 0.5 bin
neigh_modify every 1 delay ${neighborstep} check yes
neigh_modify every 1 delay 25 check yes

velocity all create ${temp} ${id} dist gaussian
velocity all create 0.65 ${id} dist gaussian
velocity all create 0.65 1 dist gaussian
fix 1 all nvt temp ${temp} ${temp} ${taut}
fix 1 all nvt temp 0.65 ${temp} ${taut}
fix 1 all nvt temp 0.65 0.65 ${taut}
fix 1 all nvt temp 0.65 0.65 0.3
Resetting global fix info from restart file:
  fix style: nvt, fix ID: 1
run ${steps}
run 350000
Generated 0 of 1 mixed pair_coeff terms from geometric mixing rule
All restart file global fix info was re-assigned
Neighbor list info ...
  update: every = 1 steps, delay = 25 steps, check = yes
  max neighbors/atom: 2000, page size: 100000
  master list distance cutoff = 3
  ghost atom cutoff = 3
  binsize = 1.5, bins = 5 5 5
  1 neighbor lists, perpetual/occasional/extra = 1 0 0
  (1) pair lj/cut, perpetual
      attributes: half, newton on
      pair build: half/bin/atomonly/newton
      stencil: half/bin/3d
      bin: standard
Per MPI rank memory allocation (min/avg/max) = 4.095 | 4.096 | 4.096 Mbytes
   Step          Temp          E_pair         E_mol          TotEng         Press     
         0   0.65          -6.6335846      0             -5.6612929      5.6343784    
     70000   0.63942512    -6.6153639      0             -5.6588905      5.8242725    
    140000   0.64148319    -6.5348637      0             -5.5753117      6.1738646    
    210000   0.62528861    -6.6288028      0             -5.6934752      5.5317503    
    280000   0.65365682    -6.5089056      0             -5.5311439      6.2219739    
    350000   0.67511428    -6.6154202      0             -5.6055617      5.9710345    
Loop time of 22.9461 on 8 procs for 350000 steps with 360 atoms

Performance: 3953619.710 tau/day, 15253.162 timesteps/s, 5.491 Matom-step/s
95.6% CPU use with 8 MPI tasks x 1 OpenMP threads

MPI task timing breakdown:
Section |  min time  |  avg time  |  max time  |%varavg| %total
---------------------------------------------------------------
Pair    | 7.7373     | 7.9715     | 8.1974     |   5.3 | 34.74
Neigh   | 0.94111    | 0.97506    | 1.0461     |   3.0 |  4.25
Comm    | 11.087     | 11.333     | 11.689     |   5.4 | 49.39
Output  | 0.08449    | 0.084499   | 0.084554   |   0.0 |  0.37
Modify  | 2.1168     | 2.221      | 2.2993     |   4.8 |  9.68
Other   |            | 0.3609     |            |       |  1.57

Nlocal:             45 ave          51 max          41 min
Histogram: 2 0 1 0 0 4 0 0 0 1
Nghost:        941.625 ave         957 max         927 min
Histogram: 2 1 0 0 1 0 1 1 1 1
Neighs:        2596.38 ave        2909 max        2272 min
Histogram: 1 0 1 0 2 2 0 0 1 1

Total # of neighbors = 20771
Ave neighs/atom = 57.697222
Neighbor list builds = 11007
Dangerous builds = 422
Total wall time: 0:00:23
