ITEM: TIMESTEP
0
ITEM: NUMBER OF ATOMS
360
ITEM: BOX BOUNDS pp pp pp
0.0000000000000000e+00 6.6943295008216896e+00
0.0000000000000000e+00 6.6943295008216896e+00
0.0000000000000000e+00 6.6943295008216896e+00
ITEM: ATOMS id type xs ys zs
214 1 0.0462302 0.0419944 0.12308
63 1 0.153294 0.188819 0.192903
195 1 0.0134471 0.203986 0.110689
174 1 0.160181 0.135105 0.045251
289 2 0.185941 0.0628294 0.166221
322 2 0.0323817 0.140064 0.229229
250 1 0.284626 0.147022 0.141435
29 1 0.446259 0.0709585 0.0947077
227 1 0.40289 0.216002 0.0627026
9 1 0.325372 0.0304974 0.000121934
31 1 0.428402 0.110944 0.24568
184 1 0.461493 0.241298 0.207755
319 2 0.218023 0.29023 0.223419
328 2 0.164643 0.427188 0.0513247
178 1 0.212302 0.289231 0.0615861
130 1 0.103655 0.345665 0.168755
78 1 0.0611863 0.498083 0.093655
272 1 0.181002 0.473237 0.205189
199 1 0.0118143 0.467135 0.233431
217 1 0.0679992 0.334287 0.0213735
206 1 0.494929 0.334798 0.084728
212 1 0.289102 0.425544 0.105476
301 2 0.383451 0.466826 0.0438807
110 1 0.333182 0.303753 0.17093
247 1 0.420468 0.429491 0.186758
314 2 0.320283 0.481194 0.228233
34 1 0.108317 0.0543424 0.290285
347 2 0.188466 0.174297 0.33194
35 1 0.0554405 0.174901 0.380134
127 1 0.180706 0.075319 0.429519
172 1 0.233753 0.240214 0.430443
14 1 0.272733 0.0677898 0.284269
95 1 0.367423 0.110074 0.409123
43 1 0.30001 0.218649 0.294007
216 1 0.475673 0.21566 0.358838
85 1 0.00165346 0.259681 0.251502
218 1 0.00965076 0.323288 0.415189
58 1 0.082211 0.46073 0.371883
239 1 0.133526 0.296894 0.325109
209 1 0.225121 0.394428 0.44214
51 1 0.392175 0.4596 0.349467
119 1 0.38547 0.31901 0.4106
147 1 0.267114 0.38295 0.291078
303 2 0.389535 0.334709 0.282878
106 1 0.030761 0.0754491 0.674253
188 1 0.197527 0.0990983 0.601392
30 1 0.111747 0.198866 0.685415
299 2 0.21949 0.221571 0.583609
211 1 0.215873 0.0175084 0.7315
180 1 0.0617129 0.0898551 0.51135
317 2 0.2963 0.0649693 0.516808
8 1 0.343572 0.079587 0.660128
96 1 0.339396 0.207569 0.543003
24 1 0.291764 0.248535 0.685423
65 1 0.458999 0.248232 0.636085
156 1 0.436943 0.0321777 0.527582
55 1 0.485956 0.0911278 0.657475
160 1 0.494644 0.173531 0.502115
152 1 0.22538 0.466966 0.590853
208 1 0.037157 0.331503 0.702084
170 1 0.171196 0.328413 0.623537
20 1 0.14434 0.450179 0.720692
173 1 0.0695404 0.430516 0.529788
240 1 0.09643 0.256471 0.522262
295 2 0.0218937 0.472125 0.685946
79 1 0.345168 0.357621 0.567812
316 2 0.279426 0.385445 0.675188
113 1 0.392556 0.35849 0.728686
309 2 0.448689 0.289997 0.517493
275 1 0.356352 0.491609 0.666024
112 1 0.477942 0.419536 0.504135
205 1 0.1857 0.0628076 0.907248
228 1 0.0791849 0.136977 0.823892
258 1 0.239251 0.157676 0.798399
177 1 0.143565 0.242903 0.921981
12 1 0.0194146 0.127899 0.969271
176 1 0.396016 0.168863 0.770309
100 1 0.288808 0.186402 0.960373
187 1 0.475399 0.0159828 0.798575
139 1 0.458546 0.132367 0.91966
10 1 0.325028 0.0401971 0.843191
352 2 0.166407 0.465866 0.837662
304 2 0.0148381 0.443676 0.992631
103 1 0.197745 0.320584 0.772208
320 2 0.0755365 0.257479 0.794589
61 1 0.21276 0.391252 0.931639
22 1 0.0555088 0.400782 0.852556
81 1 0.28472 0.450731 0.80042
104 1 0.325443 0.280187 0.845487
325 2 0.375947 0.414144 0.894103
69 1 0.469683 0.289343 0.901624
101 1 0.483761 0.452247 0.822857
94 1 0.482995 0.432446 0.971393
201 1 0.351635 0.331171 0.988892
143 1 0.227291 0.620628 0.221727
200 1 0.217962 0.557004 0.0714642
3 1 0.0877143 0.655009 0.116387
148 1 0.223845 0.721718 0.0818032
315 2 0.0630047 0.587257 0.236601
342 2 0.329148 0.699978 0.220172
358 2 0.474041 0.652063 0.0551779
256 1 0.451509 0.674209 0.187843
70 1 0.360432 0.568112 0.144535
233 1 0.334535 0.656651 0.0195725
175 1 0.214598 0.933176 0.223764
44 1 0.218803 0.774878 0.234927
6 1 0.10579 0.808116 0.129568
345 2 0.216078 0.855789 0.118965
118 1 0.163038 0.975172 0.0525222
357 2 0.0750533 0.923557 0.17557
135 1 0.0134532 0.915701 0.0106946
155 1 0.432991 0.910257 0.093458
234 1 0.460205 0.861903 0.228691
253 1 0.358554 0.787515 0.139798
349 2 0.323921 0.862916 0.248025
252 1 0.292929 0.873362 0.0197791
343 2 0.484329 0.791 0.12001
167 1 0.33281 0.98756 0.163234
336 2 0.167236 0.507594 0.449559
120 1 0.060713 0.712876 0.261579
254 1 0.00483896 0.731512 0.431331
251 1 0.119421 0.617695 0.380691
241 1 0.234081 0.521576 0.340808
137 1 0.0273028 0.560331 0.472034
162 1 0.474689 0.567165 0.410602
157 1 0.261442 0.684882 0.398579
49 1 0.366152 0.60653 0.303195
165 1 0.400018 0.683457 0.469299
326 2 0.494827 0.657083 0.311572
23 1 0.317289 0.516109 0.472036
57 1 0.0957139 0.87602 0.316356
292 2 0.151889 0.762754 0.336039
116 1 0.16026 0.777431 0.467273
356 2 0.210154 0.973149 0.346388
140 1 0.149326 0.931558 0.466449
91 1 0.013666 0.996864 0.40405
182 1 0.271241 0.850131 0.361857
18 1 0.383369 0.765079 0.328404
32 1 0.430361 0.860416 0.46252
7 1 0.304563 0.968222 0.435895
126 1 0.388639 0.95531 0.315497
134 1 0.141863 0.719257 0.615765
257 1 0.0924143 0.571833 0.613205
280 1 0.0430811 0.7146 0.734512
248 1 0.21741 0.578313 0.706667
335 2 0.0820599 0.676762 0.506047
161 1 0.201669 0.615819 0.519188
288 1 0.2829 0.701325 0.628674
138 1 0.435942 0.678332 0.674819
338 2 0.305311 0.583273 0.591732
77 1 0.454376 0.562558 0.57058
344 2 0.462904 0.532965 0.704983
121 1 0.050882 0.830096 0.56592
52 1 0.100048 0.850417 0.719825
360 2 0.183507 0.859175 0.5668
11 1 0.119975 0.963876 0.618864
76 1 0.275733 0.956484 0.575538
276 1 0.259141 0.853603 0.68149
105 1 0.409132 0.80996 0.608973
98 1 0.412998 0.954433 0.675803
154 1 0.29787 0.812153 0.507414
26 1 0.114116 0.512713 0.953761
67 1 0.0957373 0.576168 0.811108
229 1 0.186643 0.731549 0.782667
213 1 0.240065 0.602358 0.868896
269 1 0.111666 0.667731 0.965528
36 1 0.312725 0.510746 0.954228
181 1 0.445517 0.570784 0.943572
136 1 0.380137 0.580829 0.795565
312 2 0.291389 0.660071 0.76787
311 2 0.40971 0.691181 0.89293
54 1 0.0794956 0.989788 0.802294
204 1 0.142861 0.822533 0.985901
327 2 0.112052 0.960126 0.925162
168 1 0.0539241 0.851854 0.867589
38 1 0.202539 0.896877 0.840349
273 1 0.279439 0.759283 0.919232
265 1 0.47642 0.971684 0.961716
332 2 0.313633 0.93505 0.760446
45 1 0.364378 0.887889 0.889417
321 2 0.252653 0.957673 0.925759
264 1 0.380242 0.758729 0.790396
246 1 0.424174 0.781147 0.99885
99 1 0.573103 0.143493 0.165364
266 1 0.732702 0.0641673 0.151396
196 1 0.693067 0.117336 0.0162036
84 1 0.532012 0.00296467 0.214221
277 1 0.55144 0.204625 0.0176863
267 1 0.771348 0.220116 0.107821
50 1 0.884587 0.114766 0.204831
82 1 0.882163 0.132335 0.0451947
75 1 0.640463 0.298028 0.101576
90 1 0.737907 0.350346 0.23168
259 1 0.608838 0.430552 0.195669
68 1 0.735222 0.478022 0.125414
74 1 0.629638 0.423821 0.0225107
340 2 0.98728 0.351005 0.118222
133 1 0.920785 0.280436 0.0262651
287 1 0.908298 0.461028 0.077752
53 1 0.874012 0.31663 0.183116
145 1 0.783652 0.352281 0.0505919
203 1 0.858994 0.473628 0.229717
354 2 0.555346 0.138045 0.292516
274 1 0.659868 0.0656192 0.28598
102 1 0.621278 0.155139 0.398788
245 1 0.511297 0.0420751 0.384771
243 1 0.854974 0.22996 0.486098
329 2 0.977822 0.202133 0.46973
60 1 0.757761 0.197985 0.260638
230 1 0.764579 0.0975303 0.428877
117 1 0.906335 0.119465 0.361046
221 1 0.811463 0.0132791 0.298237
149 1 0.688186 0.382532 0.492044
28 1 0.614913 0.260892 0.262002
283 1 0.591841 0.46865 0.393691
92 1 0.729561 0.28382 0.386802
198 1 0.567629 0.301746 0.442912
324 2 0.659608 0.391001 0.327953
237 1 0.518719 0.368125 0.304828
144 1 0.790924 0.414971 0.366204
334 2 0.866512 0.35791 0.445198
242 1 0.870473 0.269511 0.338159
97 1 0.933396 0.449488 0.397375
290 2 0.925454 0.375262 0.295814
236 1 0.620011 0.179296 0.650946
268 1 0.688919 0.219669 0.526439
66 1 0.598229 0.0698073 0.539638
64 1 0.702323 0.0670511 0.660607
330 2 0.723905 0.054643 0.532983
122 1 0.799827 0.203017 0.635856
59 1 0.963173 0.202634 0.597137
297 2 0.912853 0.0855994 0.631386
13 1 0.911784 0.0933251 0.513572
244 1 0.609265 0.48892 0.561383
225 1 0.739978 0.408086 0.649351
142 1 0.608104 0.326498 0.618637
310 2 0.640727 0.374119 0.73877
219 1 0.505902 0.420255 0.658569
294 2 0.793578 0.33139 0.563849
48 1 0.877114 0.318062 0.699593
238 1 0.944722 0.358871 0.554178
285 1 0.821388 0.458874 0.514165
318 2 0.857968 0.428232 0.639706
291 2 0.618785 0.244932 0.847118
109 1 0.589921 0.0601901 0.912318
278 1 0.566671 0.140458 0.789935
194 1 0.722716 0.162189 0.854338
197 1 0.716936 0.00106306 0.80754
359 2 0.796932 0.22248 0.984421
80 1 0.801834 0.0155203 0.939223
279 1 0.949025 0.190229 0.750432
15 1 0.846949 0.0603686 0.752992
306 2 0.959433 0.0568845 0.801159
166 1 0.88425 0.128992 0.886048
296 2 0.808029 0.195691 0.76962
224 1 0.700062 0.26862 0.750124
37 1 0.687002 0.273909 0.948513
207 1 0.541042 0.294908 0.756687
202 1 0.741753 0.414806 0.797013
281 1 0.60192 0.378118 0.868067
16 1 0.823038 0.298125 0.853335
124 1 0.756577 0.469785 0.936823
284 1 0.992881 0.262072 0.898252
158 1 0.921091 0.439703 0.76904
190 1 0.909293 0.410467 0.932622
89 1 0.641309 0.604157 0.18357
159 1 0.591162 0.715175 0.105144
222 1 0.660584 0.569576 0.0419434
300 2 0.731356 0.686017 0.109971
153 1 0.709455 0.748716 0.207193
215 1 0.50662 0.529777 0.0877241
93 1 0.812464 0.587496 0.0327741
313 2 0.989687 0.732099 0.148788
33 1 0.948957 0.58479 0.160123
351 2 0.893486 0.667984 0.0849531
150 1 0.805419 0.625176 0.188031
39 1 0.911149 0.732295 0.246643
282 1 0.59811 0.993879 0.0526559
271 1 0.602607 0.854529 0.13621
108 1 0.704522 0.763007 0.00639548
83 1 0.743704 0.93134 0.0941445
323 2 0.650729 0.967074 0.175207
179 1 0.839964 0.768718 0.109565
210 1 0.827801 0.876734 0.225728
86 1 0.960638 0.858581 0.149624
286 1 0.893396 0.998539 0.104337
262 1 0.993514 0.757786 0.0151969
5 1 0.864291 0.865295 0.00094181
270 1 0.526992 0.745147 0.411144
114 1 0.505086 0.539924 0.26336
261 1 0.618009 0.619566 0.344748
17 1 0.726009 0.55555 0.445492
73 1 0.711062 0.510684 0.281844
87 1 0.775408 0.658424 0.338159
339 2 0.82462 0.539811 0.350816
333 2 0.879254 0.731505 0.397722
40 1 0.872747 0.601762 0.46431
141 1 0.942603 0.594739 0.325122
223 1 0.562646 0.761851 0.254223
27 1 0.650873 0.826445 0.485954
263 1 0.678762 0.969932 0.435601
331 2 0.548396 0.947597 0.45642
185 1 0.683592 0.913227 0.294826
21 1 0.541481 0.889396 0.348581
307 2 0.647757 0.754462 0.345771
192 1 0.772786 0.805453 0.361893
308 2 0.997418 0.82032 0.264544
72 1 0.961816 0.98891 0.255938
249 1 0.918577 0.853116 0.355743
128 1 0.84019 0.949823 0.444968
302 2 0.999939 0.869016 0.454892
56 1 0.559942 0.608207 0.656463
42 1 0.714214 0.596952 0.60444
226 1 0.617816 0.50096 0.741338
232 1 0.541659 0.749089 0.575922
71 1 0.602734 0.632541 0.504553
4 1 0.766288 0.714906 0.508896
355 2 0.837108 0.553122 0.594797
151 1 0.981409 0.678679 0.598792
193 1 0.955007 0.587575 0.727713
46 1 0.807524 0.532808 0.714211
19 1 0.832838 0.678973 0.646366
260 1 0.948587 0.504657 0.596
186 1 0.590901 0.969606 0.722537
163 1 0.684334 0.757046 0.629938
220 1 0.53271 0.806506 0.712199
255 1 0.682872 0.931576 0.599701
164 1 0.530045 0.91514 0.573382
107 1 0.688771 0.852558 0.748726
293 2 0.77074 0.950179 0.70415
131 1 0.89244 0.807785 0.500497
298 2 0.770576 0.764539 0.734318
146 1 0.959774 0.925906 0.703292
88 1 0.833 0.845689 0.659685
305 2 0.9629 0.797124 0.647982
47 1 0.978604 0.958265 0.554935
341 2 0.774367 0.860966 0.533824
2 1 0.838006 0.985407 0.593834
337 2 0.716831 0.53235 0.826937
123 1 0.686711 0.642594 0.751183
111 1 0.516737 0.637309 0.811282
171 1 0.573166 0.668671 0.963276
169 1 0.725065 0.623828 0.905943
25 1 0.598611 0.530035 0.89751
353 2 0.634721 0.719306 0.841493
348 2 0.986865 0.521745 0.863614
231 1 0.857955 0.712811 0.9614
62 1 0.978384 0.669956 0.865819
350 2 0.803858 0.657707 0.807803
41 1 0.860548 0.570843 0.878963
235 1 0.966399 0.576287 0.992137
115 1 0.575861 0.916003 0.861297
183 1 0.713378 0.907987 0.941641
1 1 0.512658 0.77504 0.869247
125 1 0.562578 0.827737 0.996065
191 1 0.948739 0.980447 0.894931
132 1 0.830543 0.899254 0.807436
129 1 0.769904 0.77024 0.861508
346 2 0.92641 0.833173 0.87464
189 1 0.904783 0.759336 0.760776
ITEM: TIMESTEP
70000
ITEM: NUMBER OF ATOMS
360
ITEM: BOX BOUNDS pp pp pp
0.0000000000000000e+00 6.6943295008216896e+00
0.0000000000000000e+00 6.6943295008216896e+00
0.0000000000000000e+00 6.6943295008216896e+00
ITEM: ATOMS id type xs ys zs
12 1 0.11322 0.0300222 0.12118
195 1 0.2263 0.15875 0.129938
319 2 0.0917878 0.149841 0.18611
357 2 0.0313208 0.116921 0.0511533
321 2 0.22912 0.0449241 0.079735
250 1 0.390248 0.155657 0.0956401
172 1 0.328821 0.105102 0.246181
205 1 0.360897 0.00343803 0.106028
190 1 0.122415 0.254184 0.0616053
322 2 0.238852 0.288085 0.112194
267 1 0.130993 0.27096 0.214499
203 1 0.154714 0.399751 0.0803154
304 2 0.108052 0.393256 0.193779
235 1 0.00215556 0.485637 0.173339
301 2 0.404429 0.451464 0.0334148
130 1 0.250457 0.37276 0.199836
227 1 0.360075 0.457831 0.152045
139 1 0.362462 0.32269 0.08472
43 1 0.406289 0.296285 0.238807
51 1 0.496611 0.396929 0.148963
95 1 0.0441438 0.0386852 0.280087
85 1 0.0105216 0.191256 0.311222
188 1 0.204504 0.0451819 0.499093
91 1 0.0858017 0.0992195 0.421979
96 1 0.170328 0.119025 0.291206
272 1 0.274167 0.241149 0.300562
119 1 0.317704 0.0254202 0.383794
31 1 0.474762 0.0520925 0.390513
239 1 0.267899 0.177445 0.439959
234 1 0.41374 0.203743 0.380324
307 2 0.395556 0.122717 0.473013
9 1 0.474623 0.155022 0.253724
268 1 0.00520233 0.345913 0.375857
240 1 0.133974 0.261975 0.375452
58 1 0.125927 0.451043 0.455864
78 1 0.198486 0.389098 0.341549
141 1 0.0721025 0.455849 0.307048
336 2 0.0695893 0.325487 0.48389
219 1 0.471365 0.34376 0.464287
110 1 0.322617 0.325466 0.402098
63 1 0.295384 0.477825 0.450137
241 1 0.443015 0.489047 0.472116
247 1 0.364816 0.437451 0.308124
30 1 0.162728 0.0620664 0.65018
170 1 0.144603 0.183027 0.546876
103 1 0.146537 0.238396 0.706529
13 1 0.0551841 0.0211396 0.54473
106 1 0.0255784 0.14264 0.674408
47 1 0.0356412 0.00333411 0.719148
360 2 0.38523 0.0394062 0.660741
156 1 0.459801 0.0696953 0.566024
258 1 0.297795 0.111613 0.595306
104 1 0.417784 0.170596 0.682115
65 1 0.394216 0.234517 0.534819
20 1 0.0997161 0.350732 0.604975
264 1 0.206954 0.38826 0.709135
152 1 0.231277 0.32264 0.515114
165 1 0.201255 0.499687 0.599144
276 1 0.366232 0.385386 0.724875
79 1 0.292712 0.264315 0.641935
275 1 0.365484 0.38848 0.568819
113 1 0.479498 0.316015 0.641275
352 2 0.464989 0.455921 0.676357
299 2 0.368015 0.26608 0.749274
356 2 0.110125 0.123927 0.76354
202 1 0.00898832 0.211023 0.965337
279 1 0.032835 0.0853091 0.866248
61 1 0.180772 0.173841 0.856381
211 1 0.174993 0.0188433 0.801264
284 1 0.0431582 0.232515 0.819726
217 1 0.144333 0.117626 0.993182
177 1 0.288283 0.13674 0.751719
296 2 0.454538 0.132799 0.794218
174 1 0.308488 0.102461 0.983991
176 1 0.468092 0.0978725 0.943247
289 2 0.410812 0.214718 0.993614
291 2 0.271717 0.0562387 0.863179
81 1 0.373136 0.181104 0.868563
228 1 0.381081 0.0071714 0.812683
200 1 0.136708 0.326473 0.90771
213 1 0.0668884 0.386455 0.776641
67 1 0.204749 0.458048 0.854177
348 2 0.129819 0.445232 0.96488
101 1 0.499612 0.441127 0.804362
69 1 0.484174 0.26155 0.806464
201 1 0.266647 0.305086 0.824726
36 1 0.393585 0.344077 0.906262
178 1 0.262914 0.251064 0.97405
328 2 0.328879 0.448835 0.827634
212 1 0.272114 0.406186 0.983658
253 1 0.184749 0.671943 0.122087
120 1 0.0910427 0.657797 0.241694
143 1 0.154637 0.525985 0.17909
26 1 0.132258 0.566642 0.0213713
269 1 0.0071814 0.616478 0.100709
237 1 0.460139 0.525017 0.227072
49 1 0.318425 0.683301 0.0396677
215 1 0.314394 0.603652 0.183572
114 1 0.444457 0.571768 0.0641228
162 1 0.433647 0.700009 0.150782
38 1 0.285455 0.535751 0.0499015
314 2 0.277142 0.505526 0.236787
262 1 0.0778364 0.781801 0.109858
175 1 0.139019 0.894745 0.20109
311 2 0.0770859 0.906461 0.0780557
349 2 0.220799 0.771235 0.0581553
76 1 0.242616 0.899282 0.0809251
14 1 0.239105 0.992491 0.205132
214 1 0.0329571 0.99944 0.00179807
256 1 0.444449 0.842954 0.215748
44 1 0.272664 0.777726 0.169949
292 2 0.339643 0.888828 0.167927
343 2 0.470625 0.941404 0.106308
159 1 0.394174 0.830358 0.0643674
167 1 0.451064 0.995716 0.231407
112 1 0.224165 0.68197 0.398472
209 1 0.0416342 0.608298 0.39993
233 1 0.19108 0.542417 0.34873
315 2 0.101975 0.728959 0.416962
335 2 0.232105 0.664724 0.261603
324 2 0.463066 0.536914 0.353528
18 1 0.351014 0.731473 0.282278
342 2 0.450725 0.653329 0.263523
283 1 0.456662 0.64674 0.452796
70 1 0.346239 0.594921 0.35427
182 1 0.068123 0.867757 0.446066
345 2 0.0343897 0.818871 0.250988
340 2 0.031994 0.990259 0.407589
180 1 0.161308 0.967126 0.330349
127 1 0.149084 0.786845 0.298335
21 1 0.231251 0.891578 0.448286
148 1 0.344314 0.751671 0.432138
270 1 0.402072 0.906169 0.423952
252 1 0.298538 0.87536 0.292685
71 1 0.482226 0.769305 0.360703
316 2 0.196395 0.612717 0.637799
248 1 0.0688417 0.672795 0.648217
229 1 0.110215 0.522287 0.711198
116 1 0.0293481 0.742778 0.519407
161 1 0.131295 0.61414 0.52312
295 2 0.00880428 0.599396 0.745143
288 1 0.264801 0.525385 0.742954
98 1 0.294602 0.638771 0.52762
147 1 0.390411 0.538379 0.607189
1 1 0.314419 0.658771 0.696924
232 1 0.19202 0.75722 0.53024
146 1 0.00710531 0.901039 0.611973
154 1 0.210871 0.785765 0.690244
338 2 0.107086 0.802693 0.613708
7 1 0.0774056 0.834704 0.734828
157 1 0.180919 0.915923 0.586879
297 2 0.149767 0.939818 0.714947
164 1 0.279246 0.969919 0.707429
105 1 0.318111 0.84175 0.594087
8 1 0.441431 0.918931 0.652823
32 1 0.462834 0.794977 0.524578
126 1 0.337098 0.976347 0.53947
220 1 0.447232 0.757264 0.677677
121 1 0.0324082 0.695632 0.816434
191 1 0.059193 0.688882 0.970358
280 1 0.102856 0.566687 0.86809
204 1 0.192904 0.711614 0.912711
62 1 0.172671 0.655345 0.77106
346 2 0.227125 0.588574 0.935907
138 1 0.484435 0.701327 0.814314
94 1 0.426961 0.568081 0.752956
273 1 0.398619 0.509401 0.9178
246 1 0.325999 0.64053 0.852398
261 1 0.451433 0.691678 0.959401
332 2 0.0848495 0.812844 0.865162
168 1 0.130944 0.855201 0.968191
50 1 0.213506 0.982504 0.95516
54 1 0.063881 0.939503 0.851562
52 1 0.19789 0.861228 0.83355
312 2 0.296786 0.920229 0.86214
305 2 0.27486 0.752168 0.826782
115 1 0.449038 0.833646 0.881884
10 1 0.348968 0.844848 0.77159
134 1 0.292002 0.82588 0.947301
45 1 0.378298 0.961994 0.963575
29 1 0.665077 0.0267772 0.104708
259 1 0.608419 0.153864 0.166181
302 2 0.572772 0.0438207 0.213416
28 1 0.744278 0.155216 0.0624083
326 2 0.608608 0.176137 0.0452414
265 1 0.514261 0.0591963 0.0892187
184 1 0.509424 0.24761 0.130457
245 1 0.753035 0.123513 0.213778
347 2 0.864888 0.131212 0.124633
35 1 0.959923 0.0498169 0.124981
117 1 0.862794 0.248392 0.209868
34 1 0.988151 0.202372 0.138778
90 1 0.611955 0.319083 0.232735
281 1 0.62526 0.325616 0.0633523
266 1 0.735164 0.287821 0.143832
351 2 0.678737 0.404452 0.161872
87 1 0.629138 0.493677 0.24467
68 1 0.594451 0.483683 0.0865793
124 1 0.502276 0.382601 0.00218716
74 1 0.756354 0.385 0.0199785
37 1 0.864743 0.253813 0.0491124
145 1 0.879147 0.38625 0.133847
82 1 0.994922 0.338073 0.0504443
290 2 0.865698 0.495874 0.194348
242 1 0.998759 0.337997 0.223407
359 2 0.89083 0.396769 0.00476803
216 1 0.547574 0.164629 0.470502
223 1 0.624494 0.0191329 0.438237
271 1 0.610465 0.142333 0.317045
185 1 0.766159 0.106119 0.376251
99 1 0.89031 0.0907045 0.262276
221 1 0.921248 0.0913591 0.43176
230 1 0.875308 0.227485 0.380391
59 1 0.998227 0.213399 0.470604
23 1 0.523279 0.416719 0.33976
263 1 0.745383 0.296915 0.45882
160 1 0.733707 0.250812 0.302828
236 1 0.607791 0.292313 0.396341
73 1 0.667579 0.439683 0.378317
344 2 0.578911 0.415242 0.462977
334 2 0.511945 0.283486 0.302803
303 2 0.870324 0.329869 0.306332
144 1 0.916032 0.454822 0.298832
274 1 0.840082 0.398736 0.419603
150 1 0.763313 0.402995 0.258677
309 2 0.995998 0.484764 0.412594
255 1 0.730114 0.211424 0.657265
330 2 0.674849 0.112306 0.697135
24 1 0.567059 0.195946 0.699003
55 1 0.511043 0.0493711 0.711301
186 1 0.620271 0.0453465 0.599193
317 2 0.519766 0.208564 0.584622
27 1 0.696832 0.146498 0.510313
278 1 0.769824 0.0268582 0.656931
243 1 0.919025 0.0381393 0.615811
238 1 0.874541 0.164907 0.713022
128 1 0.852548 0.180721 0.544996
329 2 0.98189 0.126922 0.556786
192 1 0.788351 0.0230653 0.506939
136 1 0.561466 0.456668 0.593119
102 1 0.699401 0.431429 0.529447
318 2 0.705897 0.346339 0.631734
66 1 0.614576 0.297716 0.56308
181 1 0.611672 0.360655 0.71596
64 1 0.698065 0.490231 0.655214
218 1 0.980384 0.407969 0.512344
198 1 0.825154 0.345043 0.605249
208 1 0.96243 0.443185 0.652679
173 1 0.960774 0.269858 0.607935
226 1 0.828974 0.473611 0.736536
137 1 0.835596 0.497267 0.554725
331 2 0.884388 0.294417 0.501741
125 1 0.649708 0.0812798 0.946222
197 1 0.569248 0.141722 0.840956
109 1 0.719649 0.174839 0.81079
75 1 0.701844 0.242056 0.938151
100 1 0.52858 0.245354 0.956193
53 1 0.902669 0.0946366 0.997167
320 2 0.936927 0.0661963 0.780384
107 1 0.772329 0.0298072 0.84154
306 2 0.776871 0.11904 0.921331
133 1 0.901594 0.175842 0.857067
129 1 0.677655 0.478346 0.809796
294 2 0.71436 0.357483 0.886263
48 1 0.740459 0.339045 0.766695
224 1 0.596799 0.359665 0.879964
325 2 0.617205 0.260002 0.816293
358 2 0.64241 0.429086 0.976864
16 1 0.830088 0.321169 0.895246
225 1 0.97137 0.348605 0.885625
97 1 0.910313 0.323844 0.754497
25 1 0.834509 0.471155 0.887593
287 1 0.997729 0.468135 0.975372
333 2 0.705166 0.597993 0.221513
89 1 0.57772 0.62039 0.178177
199 1 0.745087 0.510657 0.13373
210 1 0.719308 0.709432 0.138423
231 1 0.61555 0.638744 0.0370532
41 1 0.868426 0.520357 0.03685
39 1 0.850947 0.611051 0.157687
327 2 0.771801 0.618528 0.0553889
5 1 0.890507 0.711462 0.0342211
86 1 0.952025 0.728739 0.183719
313 2 0.827521 0.742363 0.174529
155 1 0.572837 0.923234 0.173987
282 1 0.676765 0.879662 0.0528886
4 1 0.716944 0.864161 0.199483
153 1 0.595806 0.774368 0.240616
179 1 0.546352 0.780916 0.0937771
183 1 0.533332 0.916825 0.00618746
118 1 0.96434 0.883322 0.150451
354 2 0.898453 0.962077 0.04514
286 1 0.826715 0.844093 0.0934454
84 1 0.817498 0.998626 0.147263
323 2 0.936324 0.977111 0.218675
196 1 0.772508 0.995988 0.00931491
92 1 0.555273 0.621932 0.330541
310 2 0.665182 0.576544 0.349902
40 1 0.698163 0.699822 0.318636
207 1 0.579661 0.542891 0.465816
149 1 0.738777 0.62333 0.4395
142 1 0.605005 0.705851 0.469379
254 1 0.992033 0.745379 0.349496
3 1 0.950928 0.605296 0.261715
339 2 0.767471 0.508758 0.425572
60 1 0.795446 0.545696 0.284933
33 1 0.88895 0.566933 0.408498
249 1 0.842853 0.685893 0.314585
341 2 0.567363 0.833305 0.4462
56 1 0.556578 0.907216 0.335502
17 1 0.690928 0.853356 0.382647
83 1 0.681416 0.998009 0.28216
131 1 0.862841 0.79738 0.412879
11 1 0.928236 0.937985 0.469565
140 1 0.816559 0.972336 0.355789
72 1 0.859691 0.855923 0.254271
298 2 0.786311 0.901518 0.456276
57 1 0.967233 0.908807 0.326233
111 1 0.678825 0.620913 0.576203
285 1 0.635679 0.708887 0.715453
171 1 0.574613 0.569313 0.723646
77 1 0.523479 0.626076 0.5904
350 2 0.784596 0.572216 0.635512
260 1 0.90207 0.60441 0.680546
42 1 0.778123 0.72399 0.644433
151 1 0.871734 0.692326 0.516206
257 1 0.991252 0.551361 0.539724
163 1 0.523918 0.945165 0.520744
88 1 0.680512 0.922272 0.540268
244 1 0.593659 0.800358 0.588286
123 1 0.707988 0.869516 0.691892
353 2 0.587876 0.933341 0.650086
251 1 0.738157 0.780089 0.504187
189 1 0.939252 0.771688 0.664768
355 2 0.825226 0.809453 0.735002
19 1 0.840429 0.888292 0.586846
308 2 0.932436 0.823156 0.548362
93 1 0.7016 0.540592 0.960913
206 1 0.545278 0.528663 0.932136
222 1 0.648873 0.645841 0.861276
46 1 0.748893 0.613391 0.753384
22 1 0.942126 0.611425 0.919521
337 2 0.871552 0.589407 0.808768
193 1 0.877112 0.710846 0.798529
132 1 0.802762 0.64496 0.910655
293 2 0.94967 0.729613 0.913685
158 1 0.973329 0.500037 0.810335
2 1 0.572848 0.859879 0.769558
300 2 0.749122 0.914117 0.795069
187 1 0.526527 0.978357 0.855258
15 1 0.649515 0.994772 0.753782
169 1 0.739596 0.750224 0.98909
80 1 0.724586 0.771137 0.827681
108 1 0.592922 0.777666 0.924757
277 1 0.673945 0.920582 0.896773
6 1 0.979353 0.838645 0.978774
166 1 0.953421 0.8401 0.817081
122 1 0.86238 0.946993 0.752232
135 1 0.829771 0.849965 0.91643
194 1 0.914565 0.974928 0.896606
ITEM: TIMESTEP
140000
ITEM: NUMBER OF ATOMS
360
ITEM: BOX BOUNDS pp pp pp
0.0000000000000000e+00 6.6943295008216896e+00
0.0000000000000000e+00 6.6943295008216896e+00
0.0000000000000000e+00 6.6943295008216896e+00
ITEM: ATOMS id type xs ys zs
272 1 0.226356 0.142245 0.0975059
322 2 0.165127 0.24649 0.181037
200 1 0.0775036 0.185589 0.092978
217 1 0.128629 0.040717 0.166967
82 1 0.0300346 0.329478 0.049396
250 1 0.401476 0.0911873 0.0837367
155 1 0.394866 0.108902 0.272529
44 1 0.160238 0.027046 0.0178244
158 1 0.110322 0.461339 0.0852171
235 1 0.100337 0.357418 0.204355
212 1 0.212495 0.310626 0.0836237
112 1 0.253227 0.402597 0.205332
190 1 0.00366156 0.0393396 0.0765698
302 2 0.486112 0.00151259 0.469903
245 1 0.320321 0.220811 0.193202
273 1 0.259057 0.464052 0.0288933
227 1 0.369796 0.245252 0.0417538
51 1 0.389732 0.374334 0.122497
141 1 0.0111791 0.479597 0.312603
334 2 0.013407 0.273822 0.152611
203 1 0.062054 0.20232 0.243334
12 1 0.203902 0.14001 0.250969
96 1 0.209088 0.16933 0.413151
319 2 0.0956975 0.0767646 0.310914
95 1 0.0669338 0.171847 0.394839
14 1 0.288199 0.0124182 0.169833
9 1 0.426247 0.336235 0.267876
247 1 0.3087 0.376501 0.363849
195 1 0.349541 0.22654 0.359052
321 2 0.294033 0.079604 0.321776
31 1 0.350049 0.00119037 0.465657
78 1 0.0485609 0.453059 0.458632
216 1 0.207907 0.315238 0.457814
130 1 0.195641 0.276498 0.30901
304 2 0.0944616 0.308512 0.382268
143 1 0.156954 0.418895 0.351875
184 1 0.483685 0.465102 0.197928
310 2 0.388475 0.472715 0.41491
317 2 0.333776 0.12487 0.45021
301 2 0.377286 0.457325 0.273034
91 1 0.194265 0.0182209 0.389467
236 1 0.490574 0.145543 0.423332
234 1 0.489158 0.248226 0.138039
267 1 0.0162787 0.307088 0.47631
264 1 0.196789 0.475513 0.489291
237 1 0.499268 0.462852 0.348139
170 1 0.144676 0.202045 0.558362
126 1 0.0850393 0.0688412 0.513352
211 1 0.167601 0.11872 0.688669
294 2 0.0582504 0.112077 0.973974
279 1 0.0196315 0.12971 0.65538
336 2 0.278464 0.233549 0.525238
172 1 0.262859 0.104241 0.553603
228 1 0.325836 0.16655 0.684438
186 1 0.419172 0.108898 0.547325
55 1 0.460007 0.167116 0.787938
204 1 0.154643 0.458133 0.905758
36 1 0.248805 0.330691 0.919126
69 1 0.445802 0.42535 0.807257
299 2 0.143465 0.33078 0.83446
275 1 0.131046 0.357602 0.597249
295 2 0.161343 0.246859 0.673583
62 1 0.0867315 0.423371 0.755421
358 2 0.33911 0.367116 0.838447
219 1 0.461079 0.217472 0.639358
147 1 0.35417 0.434568 0.669161
239 1 0.269118 0.302988 0.629682
307 2 0.416126 0.343333 0.603698
152 1 0.236948 0.385914 0.761002
110 1 0.333766 0.409881 0.516935
139 1 0.386529 0.300323 0.73407
289 2 0.135342 0.345197 0.988018
103 1 0.228993 0.245433 0.789322
178 1 0.10297 0.232313 0.928412
47 1 0.0707029 0.222002 0.776387
61 1 0.157819 0.094638 0.884059
276 1 0.181587 0.4819 0.659886
233 1 0.409609 0.264303 0.497872
201 1 0.0174401 0.337564 0.870247
177 1 0.311953 0.0968607 0.814893
258 1 0.384507 0.256229 0.876288
174 1 0.26132 0.168568 0.949539
205 1 0.42177 0.126288 0.941984
81 1 0.389633 0.381435 0.967713
164 1 0.442189 0.0528883 0.691892
79 1 0.310948 0.483833 0.885923
285 1 0.465702 0.0149545 0.849585
50 1 0.296335 -0.000137834 0.93526
59 1 0.0103877 0.27691 0.64282
329 2 0.000914677 0.17934 0.533113
207 1 0.486216 0.429135 0.527751
33 1 0.0095533 0.458891 0.613786
125 1 0.508921 0.26356 0.978752
214 1 -0.00321469 0.109949 0.858134
189 1 0.090161 0.0151125 0.772362
328 2 0.208809 0.501678 0.793689
120 1 0.21222 0.638366 0.128306
287 1 0.0615505 0.601832 0.0919813
215 1 0.135573 0.753513 0.0308855
114 1 0.441925 0.624263 0.143463
70 1 0.334574 0.685378 0.223543
11 1 0.0294037 0.981593 0.379585
253 1 0.332046 0.604857 0.0348256
162 1 0.299361 0.761985 0.084027
38 1 0.330571 0.522176 0.160229
355 2 0.424786 0.709687 0.0233839
252 1 0.30389 0.792936 0.369786
118 1 0.169466 0.873065 0.138258
249 1 0.0746037 0.747267 0.179654
232 1 0.123273 0.907403 0.477819
292 2 0.210302 0.753878 0.180355
341 2 0.23258 0.901394 0.392
26 1 0.152148 0.524183 0.224507
175 1 0.316782 0.912277 0.0523352
119 1 0.314134 0.845356 0.214703
256 1 0.447267 0.798335 0.126502
270 1 0.453853 0.963927 0.195726
101 1 0.460256 0.504562 0.0262153
39 1 0.0364629 0.620098 0.255267
18 1 0.19147 0.673238 0.29674
127 1 0.184563 0.626833 0.438407
314 2 0.12906 0.549972 0.348219
63 1 0.275635 0.515723 0.329637
209 1 0.0361369 0.595143 0.418178
254 1 0.0403958 0.73643 0.337692
188 1 0.321633 0.952346 0.316384
87 1 0.409303 0.579622 0.312166
58 1 0.327029 0.578893 0.451871
283 1 0.447902 0.698052 0.400946
335 2 0.311864 0.664684 0.344041
357 2 0.185634 0.973886 0.274589
72 1 0.0651006 0.932419 0.240008
21 1 0.167693 0.777889 0.419329
340 2 0.0226245 0.866433 0.351847
180 1 0.185493 0.835646 0.285149
32 1 0.433841 0.867422 0.436122
241 1 0.484171 0.572124 0.476621
71 1 0.446064 0.826004 0.289596
349 2 0.111377 0.907441 0.0288296
156 1 0.458266 0.994376 0.349357
288 1 0.203039 0.679843 0.726036
308 2 0.0976365 0.576377 0.69526
42 1 0.0569812 0.710262 0.652616
161 1 0.0868342 0.574212 0.562522
116 1 0.180399 0.752415 0.574416
268 1 0.243537 0.603952 0.586682
1 1 0.399954 0.571174 0.596319
206 1 0.462497 0.55092 0.726763
93 1 0.435129 0.700414 0.765081
332 2 0.0924403 0.840426 0.606719
54 1 0.235089 0.843385 0.693664
157 1 0.137258 0.955308 0.633072
148 1 0.342298 0.720708 0.509836
166 1 0.006383 0.853349 0.717369
296 2 0.221462 0.989835 0.518844
77 1 0.456035 0.771882 0.59841
52 1 0.321674 0.724484 0.65584
165 1 0.289339 0.86927 0.52061
10 1 0.384136 0.868233 0.707258
98 1 0.436742 0.927873 0.570369
191 1 0.0182973 0.718503 0.791068
345 2 0.257782 0.696819 0.989797
280 1 0.118898 0.57742 0.825329
6 1 0.178768 0.709814 0.878652
346 2 0.26183 0.601201 0.886281
67 1 0.174848 0.585868 0.976948
135 1 0.0256449 0.817993 0.953014
327 2 0.0569865 0.543775 0.944153
134 1 0.315408 0.816137 0.83803
168 1 0.369717 0.685533 0.907169
246 1 0.329319 0.589477 0.77428
316 2 0.297657 0.701442 0.804676
124 1 0.460855 0.566937 0.874903
297 2 0.128124 0.782041 0.743322
105 1 0.300818 1.00024 0.656986