ITEM: TIMESTEP
0
ITEM: NUMBER OF ATOMS
360
ITEM: BOX BOUNDS pp pp pp
0.0000000000000000e+00 6.6943295008216896e+00
0.0000000000000000e+00 6.6943295008216896e+00
0.0000000000000000e+00 6.6943295008216896e+00
ITEM: ATOMS id type xs ys zs
288 1 0.217543 0.107095 0.0581083
13 1 0.0345008 0.175706 0.243179
150 1 0.107321 0.245216 0.134696
4 1 0.194993 0.143288 0.194189
221 1 0.00378933 0.12011 0.0363708
235 1 0.113127 0.00818591 0.199725
270 1 0.102869 0.00839866 0.037555
130 1 0.397513 0.217721 0.0010099
309 2 0.308589 0.166493 0.135638
25 1 0.445758 0.18029 0.152227
261 1 0.387259 0.0709768 0.0362872
234 1 0.476793 0.0373489 0.155611
335 2 0.370328 0.119836 0.239445
85 1 0.319548 0.0254232 0.176644
301 2 0.176457 0.339538 0.034507
214 1 0.0711932 0.390269 0.101627
135 1 0.203474 0.35352 0.166285
341 2 0.107521 0.453766 0.19676
196 1 0.16977 0.493184 0.028077
247 1 0.445652 0.484633 0.0996923
104 1 0.256621 0.251059 0.0521609
256 1 0.410397 0.317578 0.111287
345 2 0.314518 0.408107 0.119853
12 1 0.0168297 0.241081 0.381097
188 1 0.13462 0.0651369 0.361671
356 2 0.225437 0.0424707 0.442021
326 2 0.133559 0.190436 0.416973
8 1 0.0550414 0.109814 0.496374
176 1 0.353548 0.249371 0.25454
59 1 0.497239 0.132995 0.297758
328 2 0.470063 0.114353 0.417362
16 1 0.378935 0.0123291 0.335495
232 1 0.26547 0.135418 0.350459
48 1 0.40523 0.225721 0.387977
182 1 0.34705 0.0822167 0.481356
244 1 0.202261 0.431954 0.305416
178 1 0.0524992 0.363357 0.267904
95 1 0.10938 0.365524 0.421126
32 1 0.163651 0.260112 0.280117
199 1 0.0535385 0.496655 0.328852
161 1 0.47485 0.473284 0.28284
94 1 0.251639 0.286371 0.383218
133 1 0.25637 0.481107 0.452139
195 1 0.349242 0.393753 0.262748
79 1 0.366366 0.38681 0.404231
324 2 0.340501 0.297805 0.491197
50 1 0.472646 0.462604 0.491832
302 2 0.121529 0.116879 0.600371
106 1 0.151921 0.236574 0.660493
21 1 0.0771275 0.243934 0.523294
34 1 0.204777 0.171557 0.508961
81 1 0.00689479 0.169962 0.639658
228 1 0.122063 0.0876458 0.720863
286 1 0.195714 0.0150346 0.551753
227 1 0.0366667 0.000627805 0.631991
143 1 0.276943 0.0645779 0.670801
339 2 0.384032 0.137741 0.667018
24 1 0.467833 0.153865 0.56283
201 1 0.429202 0.0180176 0.635765
72 1 0.327945 0.212706 0.58618
102 1 0.0625397 0.363227 0.653422
93 1 0.206823 0.335908 0.546677
180 1 0.185334 0.471559 0.603521
20 1 0.0693984 0.499388 0.725102
306 2 0.047014 0.390066 0.533041
209 1 0.294184 0.327013 0.67188
145 1 0.346784 0.400752 0.555104
3 1 0.431055 0.272573 0.696825
272 1 0.307045 0.483661 0.726801
338 2 0.425141 0.420202 0.72214
138 1 0.467294 0.304789 0.536377
340 2 0.238541 0.0920122 0.790492
292 2 0.0687635 0.128771 0.837106
83 1 0.172167 0.0737724 0.903416
224 1 0.169543 0.203722 0.82571
84 1 0.120323 0.202585 0.97358
98 1 0.437709 0.232789 0.856442
122 1 0.381298 0.067637 0.77425
61 1 0.313727 0.134142 0.896709
291 2 0.445008 0.117588 0.917914
10 1 0.307889 0.211175 0.763467
99 1 0.155638 0.471557 0.869801
280 1 0.0280377 0.265908 0.770614
297 2 0.0440918 0.263707 0.898783
200 1 0.178386 0.385207 0.751035
191 1 0.0548331 0.377585 0.937736
30 1 0.194438 0.325634 0.904748
312 2 0.0636473 0.388318 0.798008
254 1 0.438537 0.38057 0.941896
258 1 0.425098 0.496805 0.828245
211 1 0.293052 0.428974 0.973366
107 1 0.325698 0.359485 0.819862
350 2 0.409819 0.497097 0.961789
239 1 0.168501 0.626645 0.113182
117 1 0.0380982 0.554179 0.177271
69 1 0.063237 0.636231 0.00388695
202 1 0.0190243 0.717119 0.124069
313 2 0.242814 0.65157 0.229447
53 1 0.00940328 0.502204 0.0166034
74 1 0.245544 0.51206 0.180611
36 1 0.350648 0.644514 0.16538
334 2 0.362798 0.515431 0.216171
87 1 0.323345 0.552813 0.0528121
346 2 0.425021 0.622726 0.0642364
9 1 0.451511 0.746417 0.0908866
155 1 0.0252808 0.877749 0.0983813
157 1 0.126542 0.77233 0.0446619
233 1 0.210082 0.893899 0.109134
108 1 0.235377 0.760564 0.179731
33 1 0.10212 0.849209 0.221623
38 1 0.31015 0.753344 0.0325793
156 1 0.358751 0.894943 0.111975
112 1 0.477121 0.848132 0.195319
298 2 0.425348 0.957421 0.239709
124 1 0.490551 0.930133 0.0299682
193 1 0.108345 0.679394 0.261552
308 2 0.0559476 0.616306 0.368411
169 1 0.187137 0.59442 0.36194
212 1 0.101958 0.515265 0.472319
120 1 0.141814 0.679888 0.477228
316 2 0.421377 0.504477 0.387819
113 1 0.327172 0.707468 0.314226
100 1 0.318846 0.622693 0.449755
330 2 0.419656 0.620437 0.300656
279 1 0.468493 0.628015 0.429496
118 1 0.321227 0.527831 0.323608
241 1 0.468229 0.736297 0.291645
264 1 0.203452 0.787791 0.319381
186 1 0.22502 0.958606 0.28774
141 1 0.0574191 0.783949 0.378266
132 1 0.143475 0.917345 0.396749
343 2 0.173856 0.808885 0.456189
274 1 0.435857 0.95775 0.486299
267 1 0.294249 0.772339 0.444268
31 1 0.454485 0.780174 0.470019
18 1 0.296316 0.92092 0.444209
115 1 0.345956 0.851285 0.262647
325 2 0.388385 0.841829 0.379343
278 1 0.0937839 0.596877 0.609344
284 1 0.148071 0.741866 0.63563
111 1 0.0520011 0.675412 0.747376
242 1 0.0167416 0.732827 0.563079
42 1 0.25075 0.614137 0.612371
299 2 0.264738 0.74499 0.558846
127 1 0.365254 0.545384 0.573762
76 1 0.399238 0.686707 0.608171
68 1 0.492275 0.569812 0.664351
105 1 0.182465 0.956983 0.688786
174 1 0.0526114 0.86001 0.503498
246 1 0.210809 0.865917 0.566818
116 1 0.050665 0.845676 0.667287
314 2 0.0785468 0.988519 0.505193
71 1 0.467166 0.916421 0.731955
64 1 0.278859 0.754699 0.704534
77 1 0.355835 0.826693 0.571536
171 1 0.323093 0.905762 0.69178
271 1 0.438792 0.765722 0.717755
323 2 0.483696 0.862556 0.609769
303 2 0.319232 0.962642 0.577942
252 1 0.197829 0.609652 0.753293
151 1 0.0530632 0.578664 0.865631
121 1 0.211592 0.628986 0.963795
163 1 0.112778 0.72887 0.880364
285 1 0.363102 0.625793 0.751645
46 1 0.263534 0.711485 0.845343
310 2 0.404724 0.724734 0.837497
80 1 0.395313 0.634041 0.941564
162 1 0.291202 0.54288 0.87412
207 1 0.497649 0.631462 0.821066
58 1 0.0614994 0.891439 0.946058
103 1 0.221153 0.841926 0.923192
295 2 0.162824 0.954657 0.897565
181 1 0.135103 0.838714 0.786404
67 1 0.0738834 0.967306 0.800255
357 2 0.480807 0.900408 0.862795
26 1 0.401664 0.976885 0.926601
60 1 0.353646 0.85208 0.834204
147 1 0.258423 0.977507 0.825158
177 1 0.438605 0.806116 0.950783
321 2 0.334676 0.868704 0.977299
168 1 0.256979 0.978161 0.989795
198 1 0.6037 0.145505 0.183849
219 1 0.688827 0.129166 0.0502373
231 1 0.552743 0.216405 0.0528016
354 2 0.748948 0.249143 0.0779055
153 1 0.7576 0.187338 0.199163
86 1 0.759904 0.0389 0.185004
148 1 0.847515 0.0899921 0.0563749
190 1 0.973376 0.0419905 0.178674
154 1 0.897407 0.20943 0.166556
91 1 0.651806 0.301656 0.13951
41 1 0.716598 0.421742 0.069019
203 1 0.582132 0.446207 0.176554
215 1 0.516568 0.308446 0.228434
179 1 0.560605 0.393788 0.0299141
29 1 0.920082 0.439511 0.201251
204 1 0.855365 0.33584 0.111413
75 1 0.85804 0.492048 0.0784612
240 1 0.752457 0.357306 0.230166
319 2 0.985196 0.306039 0.170387
110 1 0.979761 0.268006 0.029819
353 2 0.934146 0.396574 0.0230211
332 2 0.743888 0.00497105 0.343441
73 1 0.687 0.0363393 0.47361
17 1 0.669696 0.106757 0.323559
43 1 0.579921 0.171033 0.444715
158 1 0.730189 0.203838 0.482705
283 1 0.6295 0.243152 0.297742
7 1 0.558611 0.0220981 0.397264
35 1 0.986328 0.0829892 0.352289
57 1 0.820138 0.132276 0.339602
146 1 0.838537 0.0920826 0.484989
318 2 0.917807 0.20279 0.306979
304 2 0.757262 0.232989 0.346464
89 1 0.862027 0.0027881 0.290716
351 2 0.662772 0.485114 0.423016
257 1 0.639163 0.411432 0.321021
337 2 0.658822 0.30987 0.415115
149 1 0.52384 0.330117 0.383807
265 1 0.959309 0.398014 0.421417
90 1 0.855338 0.496742 0.489815
307 2 0.829482 0.448061 0.298659
243 1 0.86139 0.269626 0.449448
183 1 0.763156 0.412383 0.402667
47 1 0.882023 0.326381 0.301647
49 1 0.719427 0.0996041 0.60426
192 1 0.726996 0.225194 0.698999
320 2 0.581257 0.135161 0.624378
237 1 0.556467 0.0280657 0.556839
342 2 0.551634 0.0199992 0.708966
208 1 0.505349 0.134045 0.727386
114 1 0.886014 0.0630331 0.629632
160 1 0.845873 0.214931 0.599448
238 1 0.870143 0.22869 0.739207
360 2 0.949376 0.222958 0.538915
216 1 0.608462 0.25851 0.589769
172 1 0.68147 0.37589 0.69651
266 1 0.528887 0.397761 0.647428
55 1 0.607568 0.394646 0.50935
97 1 0.825562 0.443278 0.649565
317 2 0.81677 0.319519 0.667679
225 1 0.918613 0.347953 0.563446
70 1 0.752273 0.340343 0.550106
119 1 0.97602 0.484094 0.579763
315 2 0.950684 0.295216 0.664316
359 2 0.72276 0.0143132 0.810312
250 1 0.596713 0.242599 0.771303
255 1 0.640669 0.0883292 0.750675
56 1 0.587114 0.167773 0.900631
273 1 0.665567 0.0447042 0.916258
62 1 0.522759 0.0305454 0.855556
23 1 0.543471 0.0756264 0.998062
222 1 0.983634 0.0213868 0.919645
39 1 0.802395 0.0927646 0.758434
27 1 0.750365 0.204548 0.843369
281 1 0.83302 0.241159 0.986608
220 1 0.963079 0.0956637 0.777665
88 1 0.826881 0.0941648 0.9096
282 1 0.959928 0.175571 0.900503
159 1 0.653389 0.355821 0.854601
92 1 0.672897 0.492092 0.926417
276 1 0.618009 0.49305 0.772702
348 2 0.559801 0.433286 0.884373
294 2 0.556478 0.287068 0.934508
131 1 0.679123 0.273251 0.981137
136 1 0.506365 0.364762 0.801119
173 1 0.928063 0.492789 0.886607
96 1 0.923487 0.407478 0.758723
184 1 0.800292 0.379566 0.942778
52 1 0.927137 0.319559 0.873383
197 1 0.790462 0.347804 0.789451
137 1 0.781264 0.498945 0.806339
262 1 0.742759 0.590584 0.0497668
15 1 0.597989 0.627548 0.0943965
129 1 0.704322 0.727712 0.136
349 2 0.719062 0.616051 0.185768
245 1 0.508315 0.607385 0.216433
311 2 0.559326 0.741381 0.173911
329 2 0.618668 0.500989 0.0546709
37 1 0.72751 0.50182 0.200509
128 1 0.861827 0.574461 0.194816
230 1 0.86039 0.702724 0.104142
290 2 0.956131 0.59535 0.0958627
139 1 0.591315 0.806823 0.0625431
6 1 0.724685 0.889346 0.15653
187 1 0.588896 0.983986 0.24517
223 1 0.622124 0.984014 0.092354
327 2 0.911665 0.820317 0.0472434
82 1 0.752395 0.972579 0.0189559
333 2 0.827586 0.802718 0.17488
167 1 0.872406 0.922373 0.145504
40 1 0.951342 0.822506 0.221292
125 1 0.778676 0.824452 0.0346857
322 2 0.950885 0.975872 0.0544786
63 1 0.638768 0.666894 0.271997
289 2 0.705665 0.665524 0.398547
165 1 0.580809 0.556291 0.362001
28 1 0.749961 0.57143 0.335755
65 1 0.730585 0.578668 0.481593
344 2 0.969048 0.713712 0.446125
142 1 0.791839 0.713121 0.264886
164 1 0.952085 0.665961 0.287127
66 1 0.844897 0.661444 0.424843
210 1 0.964319 0.592768 0.464542
287 1 0.907467 0.525046 0.341436
300 2 0.688919 0.920023 0.269945
140 1 0.577505 0.750057 0.390627
5 1 0.616633 0.819641 0.254434
126 1 0.662594 0.896446 0.384842
259 1 0.510998 0.899711 0.353321
166 1 0.998187 0.920892 0.33276
358 2 0.933862 0.86738 0.466295
226 1 0.805742 0.87172 0.27849
123 1 0.8136 0.944729 0.431191
275 1 0.900767 0.796206 0.369599
14 1 0.953209 0.993037 0.485119
51 1 0.752864 0.786876 0.395269
217 1 0.648502 0.647634 0.672048
194 1 0.689977 0.723342 0.521093
213 1 0.541215 0.704281 0.560304
152 1 0.678177 0.502801 0.629559
331 2 0.525163 0.67323 0.712933
19 1 0.575949 0.561496 0.51538
293 2 0.765678 0.57051 0.67955
253 1 0.909272 0.552557 0.724615
144 1 0.926304 0.722537 0.68327
218 1 0.840027 0.624197 0.589177
355 2 0.960115 0.617576 0.634943
189 1 0.58541 0.817312 0.687103
1 1 0.732871 0.87871 0.538908
2 1 0.732434 0.774677 0.650958
101 1 0.58126 0.857291 0.506808
54 1 0.649259 0.962113 0.651471
352 2 0.718058 0.876708 0.742314
11 1 0.877438 0.766498 0.533138
347 2 0.792888 0.993282 0.55226
260 1 0.79242 0.95663 0.679206
185 1 0.913268 0.911142 0.59725
305 2 0.96109 0.93055 0.738428
45 1 0.526953 0.529302 0.950176
206 1 0.536506 0.69222 0.955604
336 2 0.63428 0.616551 0.971219
268 1 0.647882 0.633349 0.83411
277 1 0.688971 0.719657 0.974422
229 1 0.807965 0.669241 0.756944
248 1 0.77753 0.625573 0.891302
44 1 0.923462 0.668961 0.85242
236 1 0.894329 0.60705 0.989375
296 2 0.808766 0.512356 0.939759
263 1 0.70664 0.774496 0.813209
134 1 0.747891 0.911403 0.888965
170 1 0.605941 0.930933 0.792993
251 1 0.599013 0.89812 0.942475
249 1 0.547951 0.793222 0.831735
22 1 0.972994 0.845505 0.838523
205 1 0.874517 0.976302 0.822277
78 1 0.897223 0.907702 0.964544
269 1 0.977262 0.760239 0.966946
175 1 0.844375 0.837122 0.754719
109 1 0.843946 0.782185 0.906361
ITEM: TIMESTEP
50000
ITEM: NUMBER OF ATOMS
360
ITEM: BOX BOUNDS pp pp pp
0.0000000000000000e+00 6.6943295008216896e+00
0.0000000000000000e+00 6.6943295008216896e+00
0.0000000000000000e+00 6.6943295008216896e+00
ITEM: ATOMS id type xs ys zs
256 1 0.0480334 0.238255 0.0630498
135 1 0.185406 0.157964 0.0246445
326 2 0.154647 0.28363 0.131054
96 1 0.0357409 0.0739312 0.0128659
52 1 0.106499 0.132263 0.151096
235 1 0.00953058 0.0238431 0.239174
288 1 0.368816 0.0340722 0.0813779
172 1 0.491701 0.421492 0.0279015
274 1 0.380924 0.157421 0.181696
112 1 0.491746 0.0393896 0.200784
313 2 0.414916 0.274201 0.110607
84 1 0.249215 0.0855946 0.164445
156 1 0.377603 0.18403 0.028005
204 1 0.00674621 0.203355 0.236397
178 1 0.0660769 0.356867 0.195501
265 1 0.214989 0.390776 0.19852
214 1 0.146628 0.466407 0.0944843
117 1 0.00895551 0.502563 0.139439
272 1 0.0321092 0.379487 0.02967
3 1 0.274213 0.25117 0.0972765
334 2 0.250133 0.392287 0.0726812
133 1 0.4306 0.420435 0.326806
195 1 0.359629 0.381796 0.142472
350 2 0.490462 0.154915 0.468011
43 1 0.407554 0.422023 0.474233
32 1 0.291359 0.149939 0.29918
145 1 0.144523 0.0201319 0.435002
4 1 0.140893 0.100063 0.309758
188 1 0.0371073 0.221264 0.400012
210 1 0.183634 0.199382 0.421162
72 1 0.296073 0.308771 0.346909
324 2 0.312709 0.253993 0.228945
24 1 0.434981 0.0252305 0.464806
300 2 0.349975 0.0700543 0.385327
239 1 0.258283 0.442408 0.434377
187 1 0.371865 0.193245 0.423026
343 2 0.291629 0.424093 0.31399
93 1 0.0849117 0.489855 0.462163
283 1 0.432527 0.27994 0.272373
94 1 0.172079 0.241013 0.247259
95 1 0.131508 0.372829 0.335765
12 1 0.036176 0.482239 0.302874
16 1 0.486261 0.113151 0.337918
10 1 0.256742 0.0872379 0.50111
302 2 0.0160391 0.306855 0.312913
227 1 0.00303393 0.065787 0.390202
50 1 0.130215 0.328437 0.491358
208 1 0.291734 0.311559 0.503716
286 1 0.170499 0.20182 0.569721
168 1 0.0798586 0.0847787 0.705763
8 1 0.0568044 0.245679 0.658533
116 1 0.232332 0.0872821 0.647921
309 2 0.148888 0.0502144 0.957058
61 1 0.319244 0.226103 0.625957
340 2 0.354206 0.0926684 0.675367
62 1 0.459658 0.0195525 0.681329
122 1 0.449423 0.175001 0.714907
127 1 0.268096 0.415003 0.785726
138 1 0.435684 0.12624 0.575518
357 2 0.414932 0.0270969 0.807511
254 1 0.2 0.323317 0.650272
81 1 0.0101324 0.38254 0.785407
100 1 0.190017 0.460766 0.573275
320 2 0.390892 0.377168 0.762239
146 1 0.0369986 0.395353 0.591511
111 1 0.380033 0.448773 0.875324
17 1 0.433949 0.278444 0.539032
107 1 0.343692 0.393366 0.628778
136 1 0.301441 0.273433 0.769287
180 1 0.1311 0.452995 0.726928
200 1 0.185712 0.194707 0.734095
228 1 0.184081 0.0602125 0.816099
258 1 0.420313 0.281705 0.854308
224 1 0.142373 0.193536 0.883072
205 1 0.0405579 0.0560952 0.863767
98 1 0.441651 0.13386 0.895953
106 1 0.298952 0.0720729 0.957457
209 1 0.324227 0.123493 0.799809
130 1 0.282328 0.223316 0.918653
197 1 0.0293279 0.296585 0.903907
291 2 0.309304 0.347395 0.88562
30 1 0.159147 0.328314 0.838788
281 1 0.229364 0.443664 0.921391
99 1 0.0785232 0.464314 0.888665
352 2 0.502958 0.379208 0.897354
299 2 0.0239016 0.272386 0.52872
20 1 0.0311788 0.189207 0.782886
54 1 0.0253811 0.112157 0.539493
211 1 0.175693 0.315032 0.998465
55 1 0.480772 0.354742 0.666031
25 1 0.360538 0.342271 1.00226
103 1 0.0449344 0.652002 0.0430873
69 1 0.194497 0.606359 0.0797604
58 1 0.044774 0.740435 0.32772
157 1 0.226917 0.656176 0.222592
212 1 0.214724 0.587364 0.483589
19 1 0.467798 0.612419 0.479157
169 1 0.322308 0.525763 0.232565
247 1 0.370296 0.639957 0.16361
203 1 0.465601 0.508721 0.157607
339 2 0.381685 0.893181 0.508918
108 1 0.309396 0.880694 0.0323556
264 1 0.10223 0.762256 0.147647
322 2 0.147655 0.861338 0.0674672
269 1 0.201866 0.744193 0.0206988
275 1 0.0765644 0.878631 0.252401
18 1 0.236969 0.904551 0.175761
297 2 0.189276 0.53746 0.187267
37 1 0.478259 0.601303 0.0419599
234 1 0.406962 0.899407 0.157235
5 1 0.297782 0.765727 0.149482
89 1 0.48101 0.951187 0.34283
186 1 0.472174 0.78551 0.267159
164 1 0.0840283 0.619278 0.2073
306 2 0.0350391 0.613776 0.33642
154 1 0.190746 0.676704 0.366873
31 1 0.429244 0.805766 0.426655
233 1 0.0379368 0.639795 0.471313
74 1 0.197198 0.515135 0.307134
120 1 0.344118 0.844258 0.297668
150 1 0.171639 0.99108 0.0694387
63 1 0.46891 0.56483 0.308283
241 1 0.356968 0.685607 0.316966
113 1 0.350654 0.541521 0.394819
42 1 0.334672 0.683582 0.470789
335 2 0.0773432 0.989825 0.341377
132 1 0.21493 0.950803 0.30682
246 1 0.115429 0.865565 0.411694
141 1 0.192037 0.797461 0.276734
48 1 0.271492 0.80621 0.418721
245 1 0.458941 0.759639 0.076919
330 2 0.495761 0.677555 0.373629
220 1 0.0391412 0.930496 0.102197
232 1 0.310584 0.949855 0.421426
345 2 0.122934 0.998494 0.187242
181 1 0.14394 0.741996 0.493247
182 1 0.351659 1.00088 0.285884
196 1 0.332166 0.508438 0.0615417
115 1 0.35369 0.700476 0.0100412
301 2 0.0914699 0.807183 0.733213
242 1 0.130555 0.587196 0.616591
11 1 0.463913 0.832402 0.619998
253 1 0.0286612 0.579752 0.723951
252 1 0.26026 0.544494 0.688192
163 1 0.255467 0.674465 0.597781
331 2 0.417484 0.732591 0.550258
64 1 0.35341 0.561604 0.557995
189 1 0.396443 0.674467 0.664681
71 1 0.320924 0.963663 0.74032
356 2 0.075574 0.854884 0.541606
251 1 0.170505 0.804211 0.636893
355 2 0.252569 0.898071 0.653935
143 1 0.203576 0.895471 0.528758
87 1 0.283502 0.575243 0.918709
271 1 0.261852 0.823225 0.764829
319 2 0.141167 0.530202 0.983566
267 1 0.326126 0.8146 0.577446
303 2 0.467293 0.962678 0.572477
60 1 0.492296 0.898525 0.770573
310 2 0.0334235 0.973077 0.76381
174 1 0.024357 0.708357 0.609951
207 1 0.437299 0.837984 0.944705
284 1 0.139585 0.688304 0.743363
151 1 0.0579946 0.64032 0.885454
329 2 0.191033 0.658137 0.90808
278 1 0.174012 0.568322 0.831753
162 1 0.415577 0.61911 0.829517
109 1 0.0195357 0.880516 0.650341
321 2 0.385778 0.883962 0.843347
348 2 0.31517 0.546793 0.804073
36 1 0.301546 0.676216 0.779442
201 1 0.33136 0.981521 0.583617
67 1 0.130812 0.797421 0.860449
121 1 0.297552 0.784475 0.899636
147 1 0.139635 0.918656 0.758131
83 1 0.102799 0.935088 0.947984
85 1 0.0451146 0.802397 0.992931
277 1 0.427825 0.768192 0.798517
105 1 0.261395 0.938869 0.893508
134 1 0.117582 0.990649 0.588187
266 1 0.428733 0.507771 0.705872
38 1 0.410647 0.977422 0.920966
328 2 0.665118 0.167943 0.0893234
244 1 0.527862 0.172652 0.132085
126 1 0.639443 0.0971614 0.189816
198 1 0.717971 0.245857 0.171838
91 1 0.723734 0.0647609 0.0600665
104 1 0.524353 0.0726062 0.0168072
79 1 0.549998 0.476571 0.417848
29 1 0.899818 0.258887 0.37003
13 1 0.789658 0.118329 0.178099
131 1 0.935146 0.131998 0.108166
255 1 0.79741 0.198621 0.0486379
289 2 0.708884 0.443505 0.262785
179 1 0.635758 0.458004 0.148436
294 2 0.649957 0.345913 0.189127
261 1 0.61999 0.299748 0.0698033
202 1 0.924937 0.392133 0.289076
183 1 0.535899 0.3096 0.402145
53 1 0.911005 0.291338 0.0848622
21 1 0.847483 0.392748 0.417575
41 1 0.771569 0.392293 0.159905
184 1 0.863266 0.251955 0.220357
236 1 0.873492 0.435048 0.0531458
353 2 0.742324 0.0501959 0.297988
185 1 0.736301 0.071356 0.434904
216 1 0.621308 0.188765 0.421015
7 1 0.774405 0.233335 0.451356
176 1 0.598508 0.234103 0.277451
153 1 0.756477 0.174756 0.311573
102 1 0.999486 0.370087 0.435405
155 1 0.864879 0.0468194 0.299779
314 2 0.91854 0.150851 0.309078
34 1 0.890194 0.135321 0.441465
290 2 0.917166 0.395279 0.162181
231 1 0.527579 0.358826 0.169378
161 1 0.612563 0.392919 0.307864
341 2 0.843083 0.487729 0.335778
165 1 0.669699 0.372315 0.436403
47 1 0.756924 0.331713 0.306148
338 2 0.551771 0.473022 0.245932
308 2 0.588296 0.0088773 0.10729
14 1 0.626374 0.0168349 0.326493
1 1 0.585283 0.0592679 0.498952
159 1 0.75616 0.335758 0.018524
160 1 0.710729 0.157282 0.569539
250 1 0.559828 0.218775 0.558862
237 1 0.595221 0.0992281 0.678331
149 1 0.508223 0.496252 0.581593
332 2 0.664934 0.265634 0.514964
304 2 0.52121 0.375404 0.525238
315 2 0.830391 0.127834 0.569934
360 2 0.982799 0.471587 0.681376
206 1 0.842802 0.215652 0.690476
359 2 0.956784 0.152638 0.675215
170 1 0.78471 0.0794861 0.67559
144 1 0.946261 0.0235367 0.630861
49 1 0.630886 0.246492 0.687311
342 2 0.762916 0.333619 0.703699
158 1 0.62461 0.399246 0.600197
192 1 0.66844 0.395331 0.748761
325 2 0.678395 0.0340334 0.588809
114 1 0.897848 0.273491 0.812224
292 2 0.942174 0.326498 0.661835
70 1 0.763656 0.322111 0.559607
35 1 0.89229 0.254281 0.54927
243 1 0.866879 0.415091 0.738751
225 1 0.886416 0.42693 0.562958
354 2 0.759283 0.461168 0.521332
56 1 0.559475 0.210255 0.817486
249 1 0.538801 0.0429303 0.816075
316 2 0.572952 0.12694 0.909185
273 1 0.675838 0.202978 0.955728
15 1 0.683467 0.112162 0.807078
26 1 0.652144 0.0116031 0.919085
215 1 0.499478 0.260668 0.998105
312 2 0.857171 0.271245 0.964944
259 1 0.798171 0.0828339 0.919931
347 2 0.80354 0.167854 0.830107
88 1 0.900459 0.114375 0.780592
27 1 0.939776 0.179136 0.923312
318 2 0.798061 0.0198282 0.803472
194 1 0.762911 0.47629 0.646
23 1 0.718041 0.259394 0.814421
97 1 0.673663 0.465959 0.974682
152 1 0.628085 0.342011 0.900028
217 1 0.524245 0.420842 0.783887
191 1 0.76938 0.410415 0.872272
39 1 0.913694 0.399531 0.90965
262 1 0.641217 0.617609 0.142235
307 2 0.573545 0.695566 0.0739343
287 1 0.943278 0.512227 0.415711
257 1 0.641235 0.556568 0.277125
311 2 0.712193 0.682066 0.227385
346 2 0.580984 0.534374 0.0408347
40 1 0.722359 0.756177 0.10542
295 2 0.980672 0.687672 0.190979
78 1 0.893413 0.597795 0.0834813
296 2 0.780884 0.654623 0.0457427
270 1 0.843809 0.710016 0.216207
238 1 0.94658 0.750409 0.0946229
222 1 0.937609 0.578895 0.252896
230 1 0.589533 0.780535 0.162914
9 1 0.528755 0.90361 0.0646477
6 1 0.572178 0.91955 0.220346
349 2 0.653461 0.879748 0.119735
129 1 0.504849 0.659003 0.202067
190 1 0.713935 0.81591 0.246546
167 1 0.849083 0.788726 0.34613
59 1 0.725297 0.955313 0.183241
148 1 0.837713 0.854936 0.0985301
280 1 0.935204 0.834139 0.23229
57 1 0.879903 0.978291 0.166801
140 1 0.780989 0.539675 0.227798
86 1 0.867151 0.990087 0.0199226
101 1 0.557439 0.749194 0.472189
28 1 0.616945 0.715862 0.307031
351 2 0.618577 0.606445 0.39247
223 1 0.756976 0.929063 0.358147
240 1 0.736308 0.506591 0.393656
142 1 0.744016 0.667123 0.369105
75 1 0.914487 0.659644 0.381122
333 2 0.8259 0.888058 0.241109
110 1 0.9733 0.905802 0.361458
226 1 0.600094 0.856222 0.360406
68 1 0.718818 0.796872 0.423113
268 1 0.744006 0.536206 0.0809612
305 2 0.876927 0.997938 0.421026
77 1 0.539916 0.908344 0.484106
2 1 0.848071 0.87035 0.470967
33 1 0.97554 0.788178 0.457859
166 1 0.724505 0.907303 0.0164604
65 1 0.59369 0.555435 0.699727
337 2 0.523865 0.654978 0.756635
344 2 0.769967 0.804321 0.541145
118 1 0.557928 0.667661 0.601409
119 1 0.988586 0.553518 0.571403
137 1 0.935415 0.519955 0.822809
90 1 0.87022 0.575549 0.658711
218 1 0.987208 0.728916 0.763062
82 1 0.880671 0.920693 0.726528
199 1 0.856944 0.709561 0.533939
46 1 0.54318 0.527331 0.913248
76 1 0.721355 0.791626 0.735381
51 1 0.647732 0.804294 0.588613
171 1 0.583879 0.950323 0.627928
73 1 0.768569 0.890657 0.628716
248 1 0.743605 0.769167 0.926341
279 1 0.64217 0.545491 0.52433
323 2 0.898568 0.891592 0.58964
66 1 0.894905 0.782222 0.661379
327 2 0.977478 0.948781 0.97366
44 1 0.859802 0.787453 0.818781
213 1 0.556187 0.764089 0.719649
92 1 0.732727 0.643037 0.665201
80 1 0.690107 0.538144 0.843674
219 1 0.908772 0.987502 0.871259
139 1 0.642823 0.684648 0.826923
125 1 0.510231 0.702202 0.906883
22 1 0.994952 0.515917 0.987629
293 2 0.755863 0.652284 0.901194
173 1 0.823939 0.539114 0.94534
358 2 0.966929 0.759467 0.880176
229 1 0.832928 0.642073 0.786328
221 1 0.895836 0.685762 0.951514
336 2 0.616619 0.871982 0.730256
263 1 0.683078 0.972036 0.751394
285 1 0.610035 0.857836 0.859859
298 2 0.537869 0.928706 0.939241
177 1 0.754625 0.892139 0.851198
317 2 0.79905 0.507161 0.78592
175 1 0.880991 0.848074 0.954069
45 1 0.657029 0.642159 0.989123
128 1 0.814441 0.568687 0.522964
276 1 0.706259 0.686993 0.521385
193 1 0.978201 0.956281 0.496437
282 1 0.999467 0.87566 0.828205
260 1 0.82135 1.00253 0.536169
124 1 0.594098 0.783946 0.987112
123 1 0.687435 0.935352 0.509684
ITEM: TIMESTEP
100000
ITEM: NUMBER OF ATOMS
360
ITEM: BOX BOUNDS pp pp pp
0.0000000000000000e+00 6.6943295008216896e+00
0.0000000000000000e+00 6.6943295008216896e+00
0.0000000000000000e+00 6.6943295008216896e+00
ITEM: ATOMS id type xs ys zs
3 1 0.142989 0.0489863 0.0813236
172 1 0.232102 0.174009 0.12826
102 1 0.1129 0.139914 0.219138
150 1 0.00279554 0.229707 0.145406
313 2 0.161365 0.0235844 0.286017
211 1 0.126686 0.230205 0.0357052
244 1 0.376122 0.202747 0.0946287
38 1 0.40701 0.0292285 0.15019
84 1 0.2963 0.0654818 0.0490037
274 1 0.331728 0.135878 0.236862
326 2 0.467765 0.161777 0.212396
183 1 0.469906 0.405353 0.445226
272 1 0.145007 0.310688 0.171922
203 1 0.485078 0.402965 0.280495
89 1 0.468086 0.0715206 0.301864
214 1 0.251491 0.461924 0.159574
302 2 0.284871 0.265735 0.208335
161 1 0.423247 0.273373 0.230474
224 1 0.289589 0.326167 0.0979254
157 1 0.413293 0.410788 0.147371
265 1 0.319424 0.36359 0.295943
22 1 0.0801409 0.49966 0.0225802
127 1 0.180394 0.385389 0.0281706
210 1 0.112743 0.139869 0.373012
195 1 0.223165 0.191602 0.451112
93 1 0.0606528 0.247172 0.470062
178 1 0.0155823 0.13151 0.0325811
306 2 0.0219024 0.41473 0.457093
1 1 0.497426 0.246627 0.48702
24 1 0.420622 0.104483 0.456197
43 1 0.332874 0.335194 0.461818
283 1 0.352823 0.210601 0.364813
16 1 0.296235 0.0520418 0.371402
343 2 0.239291 0.467418 0.368523
72 1 0.21207 0.233425 0.303706
204 1 0.0474558 0.265562 0.288932
12 1 0.149972 0.42688 0.279804
181 1 0.0158974 0.399131 0.330041
208 1 0.183558 0.340921 0.423034
289 2 0.478454 0.462639 0.0525534
311 2 0.410934 0.324016 0.370791
287 1 0.126546 0.487952 0.420207
69 1 0.353514 0.501524 0.00981321
117 1 0.0136859 0.380983 0.104
144 1 0.072943 0.0799668 0.68487
340 2 0.190646 0.0453843 0.654551
71 1 0.210948 0.17612 0.659655
180 1 0.122855 0.120001 0.538122
8 1 0.0498657 0.250102 0.613031
49 1 0.488259 0.26161 0.733867
331 2 0.445335 0.0408736 0.71168
258 1 0.328966 0.0596402 0.675883
10 1 0.345126 0.215847 0.556029
123 1 0.46171 0.14902 0.626317
352 2 0.383003 0.450173 0.879971
328 2 0.376883 0.242479 0.972534
100 1 0.235492 0.454597 0.512882
134 1 0.221906 0.29927 0.57894
50 1 0.0935067 0.382436 0.566421
200 1 0.114634 0.353143 0.737102
30 1 0.254839 0.434051 0.666709
113 1 0.396701 0.470594 0.565981
303 2 0.326982 0.358056 0.597657
136 1 0.316796 0.282298 0.705105
61 1 0.41346 0.403606 0.727494
209 1 0.461509 0.330052 0.603661
95 1 0.271862 0.0616596 0.525869
171 1 0.458448 0.00269596 0.583515
168 1 0.0788718 0.0724061 0.838723
228 1 0.217564 0.0449796 0.798252
170 1 0.0814046 0.213385 0.755968
205 1 0.200261 0.100448 0.939195
219 1 0.239686 0.198115 0.815479
357 2 0.088358 0.0465561 0.964853
156 1 0.486344 0.21158 0.919815
130 1 0.401753 0.142944 0.768742
106 1 0.361859 0.127582 0.916165
278 1 0.114403 0.291018 0.897077
266 1 0.238939 0.385777 0.820656
197 1 0.0878353 0.453969 0.877498
329 2 0.296172 0.489845 0.776194
253 1 0.0514807 0.503529 0.703483
346 2 0.288175 0.384972 0.959655
281 1 0.378125 0.31674 0.846487
111 1 0.261036 0.261769 0.961196
37 1 0.427256 0.364471 0.984928
324 2 0.0572031 0.0182371 0.538261
334 2 0.0569659 0.377077 0.989346
288 1 0.424323 0.0084919 0.990952
115 1 0.452533 0.715487 0.0763035
164 1 0.0349523 0.639273 0.0830081
33 1 0.0987001 0.804956 0.248444
78 1 0.178693 0.699568 0.187514
233 1 0.181789 0.657056 0.0224054
53 1 0.123619 0.547834 0.183593
174 1 0.296329 0.605656 0.134044
196 1 0.443933 0.570333 0.100821
120 1 0.438628 0.675122 0.223613
175 1 0.0880997 0.769294 0.100911
238 1 0.0376652 0.956978 0.035062
345 2 0.205525 0.873116 0.184358
291 2 0.15974 0.677822 0.420849
246 1 0.320086 0.792704 0.478526
167 1 0.0775253 0.940446 0.188795
269 1 0.183285 0.893489 0.068887
5 1 0.292229 0.763748 0.0748291
108 1 0.342855 0.891665 0.117748
18 1 0.310787 0.798769 0.22997
234 1 0.38107 0.937021 0.268914
333 2 0.0430054 0.670199 0.211689
239 1 0.238801 0.596382 0.4455
58 1 0.0906595 0.611388 0.332658
154 1 0.211972 0.752864 0.340467
141 1 0.0231479 0.998139 0.3134
280 1 0.235555 0.580693 0.29471
275 1 0.0533705 0.756795 0.393443
28 1 0.383554 0.52524 0.263601
64 1 0.471386 0.722212 0.478961
322 2 0.306507 0.673083 0.236925
31 1 0.353109 0.654939 0.354984
90 1 0.0502739 0.639943 0.484097
245 1 0.464326 0.816364 0.190666
32 1 0.140339 0.999328 0.430158
143 1 0.168507 0.814358 0.469904
300 2 0.257045 0.946427 0.444132
182 1 0.22461 0.909917 0.330287
335 2 0.0938693 0.88337 0.355189
79 1 0.495967 0.558931 0.486187
132 1 0.416461 0.797775 0.345459
201 1 0.390699 0.936553 0.431694
51 1 0.011212 0.919272 0.454655
295 2 0.210237 0.528929 0.0658703
112 1 0.237516 0.992909 0.184412
338 2 0.496054 0.508993 0.36287
169 1 0.361583 0.504928 0.416038
48 1 0.210005 0.70362 0.566413
119 1 0.142836 0.563798 0.567168
242 1 0.122186 0.704667 0.707518
212 1 0.201951 0.557838 0.749078
358 2 0.10155 0.846084 0.982359
320 2 0.269913 0.575902 0.582055
162 1 0.291809 0.694792 0.697283
189 1 0.441096 0.705693 0.65211
241 1 0.361377 0.644779 0.529746
65 1 0.355782 0.55698 0.685779
251 1 0.0302121 0.793531 0.556686
356 2 0.0673225 0.830835 0.692988
116 1 0.144579 0.932619 0.564131
163 1 0.220619 0.833428 0.656367
147 1 0.131227 0.946527 0.742209
301 2 0.344426 0.767465 0.603522
339 2 0.283625 0.946662 0.718258
213 1 0.351323 0.836684 0.71107
187 1 0.320712 0.914372 0.582083
42 1 0.451594 0.840459 0.555453
252 1 0.218792 0.507288 0.936843
319 2 0.114783 0.587281 0.927538
137 1 0.0566637 0.602187 0.811611
135 1 0.155099 0.94203 0.917818
83 1 0.0676075 0.719401 0.943543
85 1 0.20385 0.660687 0.864446
217 1 0.344185 0.565649 0.857954
298 2 0.474976 0.634251 0.985165
105 1 0.303394 0.933511 0.951188
139 1 0.353334 0.659375 0.990947
46 1 0.465855 0.650662 0.834308
297 2 0.373004 0.87545 0.84976
348 2 0.229576 0.75998 0.797991
267 1 0.374883 0.995267 0.821085
87 1 0.488227 0.512711 0.911003
264 1 0.213373 0.797112 0.936624
355 2 0.0473126 0.947097 0.86887
271 1 0.118749 0.814659 0.828057
125 1 0.392915 0.816117 0.964631
284 1 0.249798 0.878967 0.816543