ITEM: TIMESTEP
0
ITEM: NUMBER OF ATOMS
360
ITEM: BOX BOUNDS pp pp pp
0.0000000000000000e+00 6.6943295008216896e+00
0.0000000000000000e+00 6.6943295008216896e+00
0.0000000000000000e+00 6.6943295008216896e+00
ITEM: ATOMS id type xs ys zs
68 1 0.145791 0.141678 0.0350396
346 2 0.0638492 0.181946 0.124076
252 1 0.212055 0.0284217 0.156563
29 1 0.19385 0.216833 0.231052
74 1 0.0536744 0.147273 0.24556
143 1 0.0543412 0.0362266 0.117323
329 2 0.107257 0.0210711 0.00566351
46 1 0.28865 0.132762 0.0861139
11 1 0.397889 0.242865 0.060029
302 2 0.410081 0.136255 0.118253
139 1 0.332594 0.129577 0.242067
35 1 0.384264 0.0139157 0.142538
213 1 0.462586 0.211997 0.229222
141 1 0.417245 0.0316551 0.00614914
152 1 0.260627 0.00117811 0.00142936
20 1 0.0411105 0.435297 0.106326
118 1 0.17759 0.370164 0.164246
84 1 0.0792539 0.291355 0.0298695
271 1 0.0543777 0.292069 0.212113
207 1 0.231911 0.267082 0.0555415
347 2 0.0114606 0.42913 0.242848
9 1 0.319374 0.302078 0.174291
63 1 0.327463 0.452816 0.17822
310 2 0.285072 0.380076 0.0810014
210 1 0.401891 0.387427 0.0229489
278 1 0.481522 0.365216 0.150328
292 2 0.185988 0.102325 0.281074
246 1 0.0832268 0.104171 0.3928
59 1 0.142313 0.245173 0.365109
290 2 0.01119 0.245515 0.332596
216 1 0.0281574 0.232416 0.475829
180 1 0.309868 0.00371785 0.466484
228 1 0.264096 0.133634 0.380594
358 2 0.453781 0.0730689 0.250343
66 1 0.426224 0.0527635 0.381481
235 1 0.404453 0.202205 0.378069
355 2 0.0639212 0.471972 0.388245
201 1 0.118185 0.478299 0.263205
267 1 0.247153 0.396935 0.304105
291 2 0.119337 0.356599 0.301605
153 1 0.134616 0.384451 0.434424
114 1 0.410054 0.346854 0.292149
185 1 0.304394 0.315287 0.418019
24 1 0.379636 0.452085 0.465255
30 1 0.469806 0.336153 0.458223
354 2 0.300394 0.261425 0.293224
234 1 0.358759 0.49694 0.318819
223 1 0.0687377 0.183596 0.64436
272 1 0.227746 0.224302 0.643836
51 1 0.158522 0.0545186 0.664454
319 2 0.0450139 0.0805497 0.71916
115 1 0.0153554 0.0950011 0.538805
248 1 0.160781 0.18457 0.509588
259 1 0.159737 0.0352286 0.506887
54 1 0.377806 0.176185 0.689538
145 1 0.299725 0.0394851 0.627095
344 2 0.411956 0.0537275 0.528551
45 1 0.322124 0.155251 0.524817
1 1 0.489629 0.168211 0.503802
331 2 0.393733 0.0447183 0.742967
136 1 0.473757 0.0637176 0.6465
334 2 0.237659 0.292082 0.520528
187 1 0.092696 0.345153 0.733175
130 1 0.119476 0.326618 0.57434
111 1 0.179229 0.477902 0.660886
21 1 0.0238775 0.469015 0.623896
300 2 0.0687366 0.484581 0.742744
359 2 0.00203462 0.362563 0.511368
206 1 0.498312 0.39449 0.615959
94 1 0.365099 0.466461 0.643774
106 1 0.481215 0.479427 0.744118
53 1 0.374301 0.297867 0.573382
6 1 0.440084 0.31402 0.742017
243 1 0.275151 0.360232 0.707382
72 1 0.254291 0.412492 0.536299
162 1 0.148983 0.0595895 0.898441
5 1 0.144003 0.168747 0.784565
257 1 0.0560573 0.187664 0.925344
60 1 0.268433 0.0842149 0.778354
97 1 0.432597 0.130665 0.831312
144 1 0.302626 0.138652 0.934123
280 1 0.308032 0.226065 0.816065
301 2 0.242231 0.492975 0.894981
270 1 0.179063 0.275067 0.902872
155 1 0.0276155 0.336857 0.884898
308 2 0.0527599 0.43395 0.967898
338 2 0.191617 0.298899 0.778673
65 1 0.144918 0.430875 0.832938
86 1 0.189204 0.398186 0.986254
26 1 0.426877 0.291608 0.900337
262 1 0.294465 0.377415 0.853054
345 2 0.301285 0.271434 0.939176
217 1 0.4166 0.454721 0.894234
282 1 0.214541 0.652498 0.0585005
17 1 0.0702647 0.681596 0.0254645
33 1 0.0387281 0.600369 0.186389
209 1 0.114464 0.748407 0.149963
175 1 0.00603144 0.549212 0.028065
260 1 0.178978 0.51447 0.126316
211 1 0.372997 0.717504 0.0626549
81 1 0.313599 0.601092 0.164188
317 2 0.402534 0.706033 0.200059
261 1 0.265053 0.740799 0.185831
222 1 0.474256 0.552267 0.130087
91 1 0.300063 0.504496 0.021419
49 1 0.137533 0.910361 0.0692407
237 1 0.0223486 0.884811 0.169324
184 1 0.247004 0.803413 0.0103247
273 1 0.274995 0.888436 0.133419
95 1 0.437183 0.832399 0.132595
296 2 0.493517 0.947879 0.0813081
48 1 0.487273 0.938695 0.2293
116 1 0.219038 0.536288 0.382923
219 1 0.179714 0.627558 0.252117
110 1 0.0771061 0.610337 0.369928
172 1 0.019443 0.737435 0.270136
56 1 0.22709 0.735719 0.349024
90 1 0.184268 0.663764 0.470199
332 2 0.470421 0.526119 0.373887
2 1 0.322833 0.703807 0.473817
340 2 0.256983 0.538294 0.253977
314 2 0.415988 0.745913 0.384645
325 2 0.338638 0.581644 0.429324
34 1 0.454911 0.630968 0.45202
266 1 0.473239 0.61883 0.278764
198 1 0.342522 0.670558 0.309754
349 2 0.120931 0.789263 0.378047
103 1 0.157286 0.860043 0.269668
287 1 0.196605 0.987678 0.35221
147 1 0.185642 0.8225 0.492696
4 1 0.0140105 0.759119 0.438514
102 1 0.07448 0.994215 0.267649
75 1 0.0738051 0.923026 0.440021
52 1 0.414853 0.808017 0.276398
89 1 0.330302 0.843854 0.404857
93 1 0.343486 0.948655 0.280925
233 1 0.463917 0.905448 0.386778
164 1 0.461165 0.78504 0.489709
165 1 0.120504 0.623228 0.676304
212 1 0.244309 0.714085 0.618124
120 1 0.117515 0.525721 0.508686
320 2 0.00546435 0.682082 0.670917
27 1 0.00989001 0.61828 0.55408
157 1 0.278992 0.569549 0.555093
352 2 0.256494 0.600767 0.680217
71 1 0.392148 0.610224 0.674125
289 2 0.493174 0.671556 0.568577
247 1 0.0222509 0.850981 0.716263
231 1 0.0798026 0.756595 0.594965
7 1 0.132344 0.895884 0.617509
324 2 0.0509062 0.973787 0.549874
150 1 0.286911 0.887159 0.589835
224 1 0.378904 0.763973 0.606607
306 2 0.289135 0.802484 0.697558
42 1 0.430572 0.924438 0.53025
57 1 0.403934 0.928132 0.685282
37 1 0.253291 0.93023 0.743218
123 1 0.0159664 0.501218 0.86383
283 1 0.0435576 0.678885 0.79507
285 1 0.163104 0.579436 0.826143
176 1 0.151211 0.548135 0.968403
312 2 0.059022 0.619126 0.910426
67 1 0.161008 0.724323 0.888202
214 1 0.274279 0.689728 0.776675
277 1 0.421708 0.590503 0.984807
158 1 0.28043 0.634158 0.904996
177 1 0.412094 0.606307 0.824898
148 1 0.41315 0.72873 0.907322
87 1 0.29507 0.519736 0.775779
70 1 0.165349 0.802171 0.750607
350 2 0.0986667 0.804301 0.986942
275 1 0.0257694 0.965869 0.91857
28 1 0.0319998 0.817771 0.86538
85 1 0.191068 0.901099 0.89361
64 1 0.0941729 0.970449 0.768776
178 1 0.317543 0.826772 0.837028
38 1 0.471061 0.859681 0.852822
294 2 0.498349 0.972838 0.913186
163 1 0.428264 0.756484 0.751708
279 1 0.369369 0.977413 0.863996
242 1 0.388653 0.876055 0.991342
161 1 0.669149 0.106497 0.11639
288 1 0.568076 0.22115 0.121539
356 2 0.680897 0.243402 0.0704871
112 1 0.52126 0.0688103 0.126923
195 1 0.738735 0.249341 0.185232
351 2 0.618599 0.00411518 0.191602
322 2 0.833525 0.0493148 0.0751279
166 1 0.798745 0.109027 0.195192
125 1 0.93758 0.136478 0.131747
127 1 0.802271 0.191362 0.0451554
244 1 0.548289 0.308592 0.00325631
98 1 0.654255 0.368781 0.124379
343 2 0.571079 0.461038 0.151775
12 1 0.543118 0.468473 0.0115872
39 1 0.890707 0.373556 0.246271
76 1 0.761977 0.429388 0.19465
14 1 0.936156 0.293919 0.113853
202 1 0.895044 0.497747 0.161764
43 1 0.805932 0.355555 0.0706616
255 1 0.617884 0.168806 0.263501
135 1 0.544947 0.021938 0.486494
10 1 0.652191 0.112496 0.413823
146 1 0.566479 0.0371895 0.311903
297 2 0.512006 0.150255 0.342222
113 1 0.571834 0.248276 0.390603
258 1 0.727541 0.235856 0.463608
138 1 0.719024 0.0182311 0.304335
339 2 0.941271 0.0941246 0.262175
186 1 0.901816 0.211854 0.252829
199 1 0.814045 0.0753462 0.468562
156 1 0.942164 0.135744 0.402206
218 1 0.787562 0.159112 0.336273
299 2 0.996886 0.00580984 0.363236
295 2 0.526327 0.366298 0.352788
240 1 0.599227 0.321302 0.254185
256 1 0.512587 0.468352 0.267765
194 1 0.722554 0.31115 0.328779
205 1 0.70939 0.40347 0.464948
251 1 0.560087 0.460394 0.448018
99 1 0.656016 0.468745 0.332021
61 1 0.961159 0.481403 0.468229
204 1 0.811793 0.441706 0.365434
221 1 0.867081 0.290432 0.390176
100 1 0.997302 0.368507 0.368213
208 1 0.635082 0.144523 0.553827
171 1 0.654168 0.0552195 0.673803
3 1 0.678755 0.210123 0.692857
330 2 0.551153 0.111338 0.746078
226 1 0.526273 0.212873 0.661936
360 2 0.801502 0.175848 0.731835
230 1 0.888725 0.208328 0.533969
305 2 0.883811 0.0691515 0.574286
47 1 0.778373 0.12846 0.607039
50 1 0.926554 0.138456 0.672892
263 1 0.83283 0.029162 0.743984
232 1 0.605392 0.293405 0.533101
190 1 0.631555 0.456838 0.602356
109 1 0.615152 0.338709 0.70159
55 1 0.74032 0.325421 0.592331
307 2 0.775559 0.454022 0.570183
159 1 0.773086 0.401135 0.721482
188 1 0.869241 0.364202 0.528222
154 1 0.974373 0.309625 0.620518
119 1 0.873199 0.483662 0.633847
31 1 0.859707 0.281751 0.707749
69 1 0.601563 0.0575883 0.872853
327 2 0.624732 0.0979488 0.992057
149 1 0.671564 0.201771 0.945898
225 1 0.727816 0.105033 0.807391
193 1 0.747561 0.0603617 0.977621
142 1 0.560821 0.227281 0.822028
16 1 0.503062 0.159555 0.968929
22 1 0.862711 0.175371 0.848976
108 1 0.985019 0.0768384 0.828455
353 2 0.869939 0.0389488 0.872665
36 1 0.99916 0.23142 0.776793
25 1 0.927675 0.0885882 0.969178
182 1 0.641629 0.488885 0.759511
181 1 0.692009 0.355494 0.959394
333 2 0.700261 0.394231 0.827824
140 1 0.73162 0.275094 0.820345
264 1 0.549356 0.378948 0.86185
104 1 0.703879 0.499815 0.901976
245 1 0.928712 0.419507 0.760694
236 1 0.8261 0.399557 0.877906
293 2 0.909104 0.313739 0.827635
313 2 0.788478 0.277845 0.936378
189 1 0.910453 0.256881 0.961235
107 1 0.928211 0.411811 0.975003
168 1 0.628637 0.582594 0.121086
196 1 0.67192 0.749085 0.0692125
8 1 0.672746 0.738403 0.243745
117 1 0.537637 0.705806 0.165282
328 2 0.637611 0.559852 0.244724
129 1 0.535494 0.690125 0.00784054
13 1 0.753063 0.592468 0.202694
32 1 0.799914 0.743439 0.182613
105 1 0.870587 0.618928 0.0721088
254 1 0.957831 0.721073 0.12743
192 1 0.812823 0.744319 0.013881
304 2 0.750711 0.644872 0.0823963
133 1 0.894954 0.628262 0.237823
167 1 0.753348 0.515322 0.0474477
253 1 0.712007 0.888118 0.0199137
40 1 0.609586 0.878466 0.143537
335 2 0.730171 0.857505 0.164705
336 2 0.53136 0.82303 0.212647
227 1 0.748234 0.979259 0.142424
58 1 0.595241 0.988535 0.0254048
337 2 0.948771 0.967357 0.0563345
348 2 0.912189 0.787047 0.225095
73 1 0.85003 0.862536 0.107788
197 1 0.899075 0.993524 0.167531
170 1 0.969621 0.836632 0.0226847
132 1 0.660231 0.568267 0.492201
169 1 0.592944 0.613603 0.361224
276 1 0.748257 0.619482 0.356389
83 1 0.604934 0.720754 0.497572
79 1 0.912626 0.637291 0.40816
122 1 0.965561 0.516557 0.314474
316 2 0.827995 0.51475 0.266848
124 1 0.81539 0.539287 0.479097
323 2 0.623657 0.954094 0.397843
134 1 0.545411 0.751698 0.345262
241 1 0.740773 0.91579 0.411078
77 1 0.583962 0.873792 0.494315
41 1 0.726518 0.774679 0.391998
96 1 0.633563 0.873712 0.296579
78 1 0.935201 0.982516 0.473345
128 1 0.982495 0.877708 0.32951
249 1 0.804478 0.881464 0.268744
92 1 0.873867 0.761918 0.333112
82 1 0.859289 0.801272 0.482609
357 2 0.86608 0.886909 0.392308
173 1 0.873816 0.999354 0.333585
151 1 0.545712 0.625055 0.717125
191 1 0.696524 0.709061 0.645596
341 2 0.60965 0.604132 0.61211
268 1 0.7302 0.560234 0.649839
284 1 0.502716 0.542053 0.567966
309 2 0.608822 0.734754 0.733104
311 2 0.803444 0.678213 0.742343
131 1 0.877305 0.640714 0.645448
321 2 0.921329 0.713722 0.554526
160 1 0.9678 0.564995 0.732502
183 1 0.783802 0.677419 0.517318
44 1 0.538062 0.765208 0.637347
220 1 0.574251 0.932159 0.632601
200 1 0.732387 0.842545 0.548232
303 2 0.646729 0.826909 0.629385
203 1 0.722918 0.92008 0.685725
326 2 0.501214 0.859152 0.725484
274 1 0.700895 0.992204 0.537584
215 1 0.980939 0.987457 0.657405
250 1 0.97619 0.864152 0.557013
101 1 0.852389 0.80092 0.635116
19 1 0.834538 0.958072 0.577949
298 2 0.888231 0.915168 0.695364
229 1 0.66247 0.623148 0.982142
281 1 0.680014 0.628651 0.795499
179 1 0.552513 0.550516 0.881467
23 1 0.560446 0.71432 0.854621
265 1 0.87696 0.543761 0.934407
174 1 0.91314 0.739055 0.763983
62 1 0.825084 0.536183 0.786037
239 1 0.804957 0.66926 0.871769
342 2 0.913789 0.624238 0.832332
121 1 0.942619 0.687095 0.940926
126 1 0.518167 0.992193 0.777118
318 2 0.639684 0.904414 0.913339
315 2 0.664556 0.993565 0.785853
80 1 0.61172 0.862268 0.784541
137 1 0.683286 0.776238 0.909427
269 1 0.548867 0.842714 0.996111
286 1 0.759353 0.935278 0.850623
15 1 0.851807 0.952048 0.981118
18 1 0.921449 0.915719 0.821904
88 1 0.752101 0.785798 0.774414
238 1 0.846943 0.812859 0.894111
ITEM: TIMESTEP
300000
ITEM: NUMBER OF ATOMS
360
ITEM: BOX BOUNDS pp pp pp
0.0000000000000000e+00 6.6943295008216896e+00
0.0000000000000000e+00 6.6943295008216896e+00
0.0000000000000000e+00 6.6943295008216896e+00
ITEM: ATOMS id type xs ys zs
257 1 0.0762977 0.133947 0.0502088
197 1 0.106889 0.180998 0.276111
354 2 0.0695438 0.0584118 0.167927
63 1 0.190657 0.142023 0.147005
235 1 0.166057 0.0225293 0.253493
345 2 0.482973 0.252733 0.119377
329 2 0.309484 0.205239 0.144248
68 1 0.261208 0.227533 0.265184
108 1 0.305495 0.093091 0.0546932
252 1 0.334333 0.0951866 0.240203
217 1 0.339275 0.40408 0.0260817
84 1 0.0919975 0.279091 0.160109
201 1 0.156676 0.421461 0.124769
97 1 0.206285 0.259276 0.038436
188 1 0.0507997 0.47547 0.393906
110 1 0.267754 0.30263 0.393177
132 1 0.454287 0.358011 0.384798
260 1 0.412779 0.264223 0.231772
26 1 0.383787 0.255138 0.050533
222 1 0.441471 0.399048 0.140926
9 1 0.286468 0.327279 0.153241
56 1 0.185696 0.42005 0.452161
259 1 0.193431 0.0397196 0.493189
24 1 0.318492 0.417769 0.288609
29 1 0.084694 0.0681832 0.38027
53 1 0.138211 0.193109 0.461023
72 1 0.239469 0.105774 0.359957
210 1 0.462492 0.117584 0.137575
66 1 0.389694 0.0600015 0.397213
82 1 0.488284 0.144913 0.29443
114 1 0.380455 0.207378 0.383672
153 1 0.0180657 0.398723 0.221404
267 1 0.176942 0.358268 0.266489
346 2 0.120341 0.354696 0.0355219
59 1 -5.0954e-05 0.236138 0.498909
139 1 0.0568152 0.310769 0.360612
206 1 0.354196 0.415313 0.488741
195 1 0.48993 0.460035 0.258017
296 2 0.450033 0.0416772 0.240907
333 2 0.458493 0.165228 0.472004
1 1 0.306369 0.156241 0.495669
275 1 0.174701 0.00656428 0.0689182
36 1 0.187477 0.140174 0.599426
215 1 0.0776584 0.0456974 0.704759
19 1 0.0381074 0.0699433 0.538672
310 2 0.243027 0.231043 0.680454
293 2 0.126294 0.00899022 0.828123
61 1 0.114598 0.22362 0.727001
136 1 0.487676 0.076954 0.706211
54 1 0.352496 0.164418 0.628009
45 1 0.42772 0.0562677 0.556566
115 1 0.267498 0.0245969 0.639336
205 1 0.4858 0.251281 0.703679
144 1 0.440264 0.122083 0.994112
221 1 0.110482 0.299257 0.590199
157 1 0.211266 0.352085 0.727718
272 1 0.0427058 0.395682 0.695727
120 1 0.0637466 0.462012 0.5582
248 1 0.230559 0.449728 0.594745
185 1 0.257818 0.296988 0.552172
34 1 0.433246 0.285261 0.537769
332 2 0.396957 0.469276 0.591973
130 1 0.35207 0.362956 0.658543
14 1 0.019469 0.479212 0.820174
15 1 0.186019 0.121556 0.944891
223 1 0.224049 0.106103 0.762964
5 1 0.0596431 0.132862 0.835984
8 1 0.0806402 0.246686 0.951661
16 1 0.479277 0.348728 0.831444
6 1 0.308585 0.411696 0.82004
334 2 0.360778 0.120523 0.758275
350 2 0.294737 0.197747 0.98039
171 1 0.327947 0.117874 0.88343
60 1 0.462026 0.176583 0.838527
228 1 0.489583 0.0234991 0.892587
302 2 0.483378 0.250495 0.954757
280 1 0.330428 0.250792 0.763514
11 1 0.174665 0.491153 0.794032
207 1 0.217654 0.243417 0.858785
149 1 0.100058 0.358834 0.83791
262 1 0.213247 0.386878 0.942887
301 2 0.416409 0.422451 0.91294
279 1 0.491599 0.414862 0.670116
86 1 0.083918 0.45979 0.955844
118 1 0.35311 0.285534 0.912292
152 1 0.0676588 0.011046 0.956439
264 1 0.498067 0.369719 0.99675
106 1 0.455414 0.496652 0.80959
176 1 0.155665 0.5672 0.168455
158 1 0.261433 0.671141 0.115631
184 1 0.137998 0.722575 0.212401
295 2 0.472127 0.665727 0.393501
30 1 0.163465 0.571067 0.497253
244 1 0.449828 0.897374 0.407909
312 2 0.380709 0.651869 0.172499
129 1 0.485768 0.71456 0.132935
211 1 0.393789 0.637457 0.0138047
95 1 0.469658 0.560392 0.122591
219 1 0.32749 0.506494 0.170193
357 2 0.111915 0.72987 0.0876898
175 1 0.00591826 0.55186 0.255531
209 1 0.112164 0.876833 0.236031
261 1 0.213807 0.83236 0.124051
349 2 0.2429 0.909937 0.254701
326 2 0.416321 0.875452 0.137703
91 1 0.245748 0.529817 0.0414423
52 1 0.349773 0.789088 0.195838
48 1 0.313769 0.962963 0.144996
178 1 0.377945 0.786393 0.0414301
146 1 0.498034 0.838016 0.250201
141 1 0.421646 0.963266 0.0333464
77 1 0.239068 0.79249 0.302999
339 2 0.32451 0.871832 0.38561
254 1 0.0217645 0.654346 0.134339
180 1 0.0908716 0.703659 0.494741
194 1 0.0960523 0.632475 0.343703
356 2 0.36464 0.544384 0.289011
198 1 0.252086 0.689772 0.421953
33 1 0.27879 0.641246 0.26582
276 1 0.467002 0.645705 0.266156
164 1 0.428065 0.537114 0.409833
190 1 0.279222 0.536141 0.395898
147 1 0.207247 0.93268 0.375188
321 2 0.0727069 0.952111 0.330321
282 1 0.163953 0.503088 0.295852
78 1 0.106201 0.799885 0.379091
2 1 0.078864 0.931716 0.458758
233 1 0.370467 0.954431 0.2907
271 1 0.0360209 0.509141 0.0853432
42 1 0.380892 0.737868 0.350855
270 1 0.0259897 0.956034 0.0933377
93 1 0.103313 0.860969 0.00259855
287 1 0.0124072 0.809046 0.139511
131 1 0.403624 0.66359 0.490271
150 1 0.322159 0.95786 0.493534
70 1 0.344374 0.805028 0.493876
319 2 0.0268468 0.584833 0.46244
283 1 0.0630176 0.611194 0.609372
284 1 0.211569 0.586271 0.666934
224 1 0.252985 0.695637 0.580439
277 1 0.473669 0.513657 0.970804
81 1 0.317406 0.555245 0.533223
324 2 0.359435 0.61544 0.645439
268 1 0.470158 0.569789 0.62573
285 1 0.287916 0.710371 0.732629
71 1 0.39189 0.74484 0.629164
121 1 0.118732 0.617295 0.99878
123 1 0.379797 0.854346 0.893517
247 1 0.019341 0.891467 0.708858
212 1 0.0678458 0.802121 0.597398
231 1 0.135948 0.940182 0.598681
7 1 0.139136 0.756123 0.735738
37 1 0.196796 0.937998 0.744729
163 1 0.272738 0.861414 0.628163
44 1 0.411016 0.90951 0.649584
314 2 0.32636 0.841987 0.765286
155 1 0.367571 0.989099 0.782934
116 1 0.332588 0.515564 0.710897
327 2 0.373333 0.986183 0.917606
28 1 0.0842149 0.620497 0.76706
65 1 0.202951 0.636972 0.852492
17 1 0.0957566 0.743008 0.886949
315 2 0.191305 0.522057 0.914451
359 2 0.28082 0.631297 0.959373
352 2 0.448112 0.92288 0.531276
208 1 0.433338 0.646791 0.762093
243 1 0.32274 0.528813 0.905343
325 2 0.321897 0.59618 0.80127
306 2 0.430853 0.621327 0.888977
94 1 0.3391 0.703678 0.877322
111 1 0.446444 0.797712 0.767129
214 1 0.22511 0.821187 0.842787
148 1 0.477913 0.743135 0.926113
49 1 0.229134 0.749933 0.974338
85 1 0.0915595 0.890669 0.84514
51 1 0.247229 0.989399 0.882134
89 1 0.193937 0.82609 0.498807
67 1 0.280508 0.893632 0.994928
286 1 0.664384 0.111001 0.0673443
109 1 0.574169 0.227034 0.0424064
225 1 0.592109 0.220436 0.199747
189 1 0.996338 0.35268 0.0498967
246 1 0.927873 0.0313752 0.429654
218 1 0.801549 0.393341 0.391983
127 1 0.977848 0.147531 0.186288
162 1 0.842529 0.15404 0.115706
299 2 0.921446 0.0247804 0.147277
203 1 0.928392 0.0637636 0.0166324
143 1 0.94565 0.219305 0.0266035
125 1 0.847368 0.345484 0.0257874
103 1 0.97836 0.0154882 0.26011
278 1 0.596056 0.365266 0.154135
173 1 0.738979 0.27409 0.112183
76 1 0.739166 0.433128 0.137554
100 1 0.845194 0.429535 0.244173
186 1 0.896169 0.304827 0.162482
313 2 0.929717 0.429995 0.131972
102 1 0.76845 0.0187791 0.152796
193 1 0.742073 0.177695 0.223452
113 1 0.562352 0.0750366 0.449513
292 2 0.998701 0.252735 0.2503
161 1 0.627514 0.0586318 0.199844
216 1 0.634524 0.198436 0.342311
213 1 0.684817 0.0558514 0.339891
337 2 0.866661 0.208012 0.241856
258 1 0.715902 0.143831 0.48246
241 1 0.83743 0.0828411 0.289073
39 1 0.96367 0.168216 0.345032
303 2 0.821595 0.0915003 0.420806
43 1 0.799269 0.212579 0.369585
204 1 0.741362 0.321734 0.273761
55 1 0.687391 0.464134 0.315596
166 1 0.582354 0.344077 0.304118
328 2 0.709374 0.290739 0.394952
245 1 0.646537 0.402809 0.456469
341 2 0.534687 0.467444 0.375468
251 1 0.58688 0.256678 0.465973
156 1 0.910866 0.309884 0.315897
154 1 0.942271 0.377754 0.450209
340 2 0.866398 0.254542 0.478986
291 2 0.928181 0.481687 0.344058
317 2 0.509247 0.244154 0.371974
273 1 0.527499 0.00311953 0.324225
355 2 0.783375 0.4848 0.488696
232 1 0.587541 0.155728 0.590264
288 1 0.662643 0.0543042 0.716803
263 1 0.623637 0.215086 0.739884
73 1 0.731607 0.170202 0.638061
18 1 0.995312 0.180557 0.643545
298 2 0.812923 0.0701113 0.650027
25 1 0.846413 0.165741 0.736998
200 1 0.920304 0.0312365 0.667211
47 1 0.717651 0.0166482 0.558084
87 1 0.600246 0.31863 0.6029
50 1 0.669028 0.467354 0.597826
140 1 0.623821 0.377304 0.743555
22 1 0.884927 0.389869 0.761975
353 2 0.844278 0.409043 0.894897
3 1 0.760087 0.31123 0.71615
119 1 0.72993 0.289109 0.519588
107 1 0.884551 0.266523 0.600992
105 1 0.851675 0.41885 0.581483
159 1 0.768297 0.479611 0.721202
40 1 0.61234 0.123805 0.93092
330 2 0.57032 0.102263 0.801391
237 1 0.79111 0.0811004 0.953037
69 1 0.716515 0.134061 0.823268
236 1 0.977458 0.25817 0.771577
142 1 0.835731 0.272699 0.860059
31 1 0.909642 0.13702 0.876769
331 2 0.840913 0.200664 0.97786
300 2 0.989495 0.342409 0.590335
305 2 0.963106 0.110973 0.760979
256 1 0.757651 0.475034 0.985344
74 1 0.713122 0.227315 0.966491
360 2 0.714148 0.262421 0.834705
117 1 0.583044 0.456182 0.88109
226 1 0.59389 0.270105 0.884993
167 1 0.729097 0.393131 0.857747
21 1 0.960852 0.36021 0.900379
230 1 0.880167 0.132042 0.540276
234 1 0.513837 0.443035 0.517629
181 1 0.921492 0.485242 0.984794
126 1 0.822711 0.0135242 0.793102
227 1 0.649333 0.360555 0.997875
99 1 0.720537 0.592018 0.0706484
266 1 0.614134 0.645204 0.176334
13 1 0.570454 0.641584 0.0197043
4 1 0.750241 0.554603 0.216119
316 2 0.766057 0.684285 0.165233
32 1 0.968138 0.879223 0.328651
92 1 0.969723 0.797345 0.465295
122 1 0.887232 0.55005 0.115789
202 1 0.878254 0.743578 0.133511
343 2 0.964327 0.611846 0.0261643
172 1 0.990936 0.725896 0.288037
320 2 0.62245 0.663152 0.409221
138 1 0.67587 0.750466 0.0893966
336 2 0.597356 0.791078 0.173524
240 1 0.652686 0.902812 0.149854
242 1 0.532176 0.842005 0.0635769
79 1 0.752672 0.787887 0.24749
41 1 0.540933 0.593904 0.492525
358 2 0.883872 0.82182 0.248246
347 2 0.788746 0.847332 0.116934
253 1 0.837816 0.947416 0.0283577
265 1 0.906393 0.906949 0.159725
318 2 0.91594 0.84569 0.0528728
342 2 0.909829 0.910356 0.445719
322 2 0.705758 0.996979 0.0175766
96 1 0.579167 0.569518 0.33755
134 1 0.718096 0.653938 0.333393
169 1 0.691295 0.565259 0.457947
249 1 0.801816 0.93694 0.28133
35 1 0.579057 0.996599 0.0255033
98 1 0.505398 0.968304 0.15234
27 1 0.827595 0.547428 0.377467
75 1 0.857078 0.64785 0.262978
90 1 0.92369 0.65571 0.41004
174 1 0.79021 0.676996 0.473009
255 1 0.849688 0.792044 0.367572
133 1 0.596894 0.736563 0.307861
46 1 0.648019 0.905825 0.301937
135 1 0.689592 0.790484 0.428533
83 1 0.547393 0.755475 0.463808
351 2 0.550669 0.841724 0.365194
88 1 0.604901 0.92396 0.439153
199 1 0.774733 0.960314 0.429679
20 1 0.982194 0.738018 0.00138794
297 2 0.636723 0.501206 0.19252
168 1 0.604873 0.501256 0.0688901
23 1 0.565851 0.682252 0.677269
183 1 0.705459 0.632075 0.690397
290 2 0.599214 0.574035 0.598373
281 1 0.588772 0.53863 0.729737
124 1 0.921555 0.524362 0.500037
112 1 0.661011 0.687289 0.543809
160 1 0.794332 0.571576 0.586579
62 1 0.944053 0.522908 0.66443
187 1 0.919502 0.686746 0.566188
104 1 0.864947 0.636012 0.724684
323 2 0.66505 0.769433 0.691446
191 1 0.543341 0.821689 0.620853
80 1 0.689185 0.853798 0.589925
38 1 0.699332 0.909678 0.745319
196 1 0.818691 0.782148 0.995372
101 1 0.955102 0.912285 0.5682
64 1 0.977767 0.997448 0.815961
165 1 0.797088 0.742331 0.644776
220 1 0.811585 0.931511 0.647375
348 2 0.921377 0.803465 0.627013
12 1 0.843284 0.61522 0.973628
137 1 0.881974 0.85069 0.75674
239 1 0.99136 0.726336 0.714525
289 2 0.651137 0.670564 0.799652
229 1 0.684302 0.693607 0.929441
177 1 0.5523 0.609631 0.861155
182 1 0.696804 0.554642 0.836424
307 2 0.64819 0.559741 0.965111
151 1 0.749867 0.758092 0.802336
192 1 0.852297 0.529872 0.84348
309 2 0.784343 0.647864 0.871344
311 2 0.955915 0.582527 0.782471
335 2 0.992432 0.81003 0.809332
128 1 0.898668 0.738059 0.867465
304 2 0.595899 0.777103 0.968762
274 1 0.591579 0.77482 0.808199
145 1 0.553359 0.945403 0.757181
179 1 0.549529 0.884818 0.918006
294 2 0.669974 0.874266 0.862651
58 1 0.68069 0.877201 0.996032
10 1 0.55814 0.972552 0.603919
170 1 0.959297 0.872081 0.929877
269 1 0.803103 0.894323 0.880822
57 1 0.669064 0.99711 0.8799
250 1 0.825073 0.825976 0.515684
308 2 0.890329 0.987229 0.90477
238 1 0.988755 0.615811 0.905183
344 2 0.511021 0.6963 0.563057
338 2 0.849015 0.991311 0.540808
ITEM: TIMESTEP
600000
ITEM: NUMBER OF ATOMS
360
ITEM: BOX BOUNDS pp pp pp
0.0000000000000000e+00 6.6943295008216896e+00
0.0000000000000000e+00 6.6943295008216896e+00
0.0000000000000000e+00 6.6943295008216896e+00
ITEM: ATOMS id type xs ys zs
84 1 0.159926 0.140837 0.184431
143 1 0.135192 0.155227 0.0142092
350 2 0.174716 0.0155786 0.145795
197 1 0.0516182 0.0115855 0.117555
5 1 0.289906 0.102958 0.0910289
63 1 0.299834 0.197798 0.225025
15 1 0.390701 0.223273 0.0699458
48 1 0.391823 0.0823661 0.21368
210 1 0.451489 0.23771 0.205363
324 2 0.34504 0.455223 0.287117
280 1 0.0191637 0.173645 0.45045
207 1 0.238332 0.249788 0.0927549
8 1 0.0722543 0.268458 0.133718
86 1 0.0943909 0.414171 0.0750142
91 1 0.222929 0.423395 0.23507
315 2 0.211538 0.382168 0.116606
149 1 0.247548 0.466494 0.0385849
68 1 0.344584 0.32191 0.289255
217 1 0.447679 0.463675 0.201255
26 1 0.348246 0.371412 0.12883
110 1 0.393846 0.425896 0.404283
219 1 0.404706 0.476176 0.0238545
354 2 0.157495 0.0938908 0.456008
188 1 0.0100071 0.490946 0.460029
19 1 0.0579675 0.0163971 0.456236
29 1 0.120643 0.136137 0.329802
39 1 0.0243048 0.248706 0.303858
252 1 0.245312 0.041079 0.255111
282 1 0.279294 0.1342 0.394029
82 1 0.427734 0.185653 0.352767
267 1 0.393322 0.0310647 0.366418
302 2 0.403789 0.102995 0.0233829
194 1 0.171062 0.279725 0.256048
139 1 0.146669 0.267356 0.42372
56 1 0.240707 0.415262 0.390969
154 1 0.0835773 0.396455 0.330091
340 2 0.100351 0.394625 0.458769
260 1 0.497244 0.316746 0.340398
185 1 0.31749 0.280707 0.436415
32 1 0.0021678 0.140456 0.163536
155 1 0.108051 0.117455 0.574932
118 1 0.0302382 0.234809 0.701724
59 1 0.184974 0.253157 0.707691
310 2 0.218348 0.130814 0.669636
72 1 0.235991 0.201963 0.548074
228 1 0.0828078 0.0992455 0.730546
66 1 0.479357 0.0301769 0.515696
236 1 0.122242 0.481242 0.942795
45 1 0.284742 0.0566943 0.576699
136 1 0.354823 0.173458 0.700595
16 1 0.340973 0.346944 0.968419
277 1 0.414833 0.473246 0.853895
44 1 0.340098 0.0148009 0.741381
221 1 0.0927509 0.290879 0.559805
284 1 0.0884219 0.455405 0.578223
290 2 0.147675 0.366288 0.655121
53 1 0.216615 0.366907 0.534769
288 1 0.437391 0.327792 0.522474
325 2 0.231348 0.46605 0.611084
17 1 0.15491 0.499949 0.712428
125 1 0.0191043 0.295411 0.97342
130 1 0.333136 0.291051 0.620405
264 1 0.43208 0.374386 0.716698
36 1 0.27882 0.400058 0.714328
248 1 0.353256 0.449401 0.560604
61 1 0.101252 0.0720549 0.892608
157 1 0.133499 0.223092 0.875862
144 1 0.235406 0.11982 0.815789
327 2 0.226185 0.072115 0.930787
60 1 0.281912 0.195596 0.943314
314 2 0.355267 0.164547 0.833128
263 1 0.462519 0.084644 0.799329
40 1 0.438607 0.186719 0.92887
171 1 0.348111 0.0459501 0.909926
226 1 0.476999 0.229858 0.776609
6 1 0.243166 0.427089 0.854245
322 2 0.405663 0.353714 0.838856
243 1 0.486235 0.339525 0.940857
279 1 0.298417 0.280482 0.810478
97 1 0.185605 0.32679 0.979477
62 1 0.11449 0.356658 0.787902
313 2 0.0733099 0.375446 0.897154
352 2 0.427302 0.0631261 0.636367
107 1 0.0030259 0.389731 0.682697
301 2 0.0810211 0.499721 0.811024
54 1 0.385774 0.159611 0.509877
49 1 0.0974156 0.742158 0.133341
190 1 0.199832 0.632391 0.189115
14 1 0.0952931 0.591742 0.0522014
293 2 0.2169 0.684201 0.0285399
201 1 0.103862 0.508068 0.193748
158 1 0.334754 0.662891 0.0823199
4 1 0.468471 0.607378 0.153623
176 1 0.311755 0.539885 0.175841
356 2 0.461534 0.731842 0.154069
33 1 0.363414 0.685391 0.25166
70 1 0.354642 0.915345 0.474726
257 1 0.192855 0.981923 0.0233897
275 1 0.1437 0.889415 0.15662
285 1 0.161309 0.826868 0.015366
67 1 0.24885 0.780045 0.152572
51 1 0.287906 0.939564 0.140558
178 1 0.39911 0.805137 0.0731441
52 1 0.380418 0.847055 0.218851
296 2 0.352921 0.968262 0.258665
147 1 0.344918 0.799092 0.371513
30 1 0.226056 0.536416 0.48728
114 1 0.476439 0.964446 0.254177
172 1 0.0632339 0.657691 0.259376
77 1 0.221539 0.722784 0.314079
9 1 0.121643 0.556062 0.379284
209 1 0.0843744 0.725108 0.42147
164 1 0.257453 0.697374 0.458049
115 1 0.489318 0.900382 0.401469
81 1 0.421238 0.556413 0.318171
238 1 0.270686 0.558643 0.329259
24 1 0.410527 0.67114 0.407236
300 2 0.346665 0.552896 0.428607
132 1 0.469525 0.544058 0.471296
321 2 0.104553 0.905317 0.391524
235 1 0.105182 0.979145 0.27733
233 1 0.238126 0.892835 0.283615
261 1 0.098033 0.809918 0.289303
198 1 0.202588 0.84047 0.433466
85 1 0.430203 0.986629 0.104843
343 2 0.00347001 0.50676 0.086311
295 2 0.496414 0.655759 0.278123
150 1 0.227091 0.98691 0.414449
28 1 0.230537 0.616638 0.618848
239 1 0.135078 0.677098 0.728209
22 1 0.0046224 0.556258 0.723502
78 1 0.266573 0.764384 0.661684
283 1 0.355028 0.615563 0.544889
71 1 0.406954 0.680728 0.677762
247 1 0.0168708 0.983187 0.612364
208 1 0.319586 0.556576 0.726921
341 2 0.432465 0.535943 0.604293
191 1 0.485321 0.828917 0.757696
37 1 0.182327 0.985405 0.698946
180 1 0.154001 0.752868 0.557745
250 1 0.0542988 0.819447 0.678312
318 2 0.171209 0.84639 0.635619
231 1 0.164414 0.94342 0.545511
339 2 0.476886 0.858628 0.534258
131 1 0.381091 0.772187 0.540329
148 1 0.295849 0.90944 0.62414
244 1 0.449756 0.926053 0.639425
330 2 0.385773 0.823324 0.671417
332 2 0.262638 0.822934 0.541609
58 1 0.452607 0.60733 0.983489
11 1 0.034741 0.597785 0.893117
214 1 0.149157 0.719126 0.89013
262 1 0.187237 0.575924 0.838881
242 1 0.431229 0.919465 0.870883
184 1 0.0939203 0.602328 0.537735
121 1 0.301491 0.578497 0.946631
266 1 0.399542 0.645923 0.837564
123 1 0.299374 0.754026 0.965404
13 1 0.28082 0.718221 0.801408
223 1 0.213849 0.958634 0.864117
101 1 0.170679 0.836682 0.772171
7 1 0.0459666 0.95687 0.969816
224 1 0.0326912 0.82796 0.884065
20 1 0.034814 0.95803 0.788071
306 2 0.222999 0.825582 0.895699
141 1 0.317304 0.862643 0.783558
179 1 0.441228 0.776256 0.92304
298 2 0.457798 0.9643 0.756278
116 1 0.483326 0.524997 0.721278
163 1 0.331252 0.916693 0.995315
170 1 0.0390582 0.716951 0.996571
89 1 0.0354244 0.859176 0.503954
161 1 0.652588 0.160254 0.134412
317 2 0.723546 0.0668002 0.307187
273 1 0.621504 0.0403888 0.241572