ITEM: TIMESTEP
0
ITEM: NUMBER OF ATOMS
360
ITEM: BOX BOUNDS pp pp pp
0.0000000000000000e+00 6.6943295008216896e+00
0.0000000000000000e+00 6.6943295008216896e+00
0.0000000000000000e+00 6.6943295008216896e+00
ITEM: ATOMS id type xs ys zs
174 1 0.100396 0.206882 0.173983
91 1 0.127629 0.0796308 0.0784179
73 1 0.192467 0.214018 0.0279325
190 1 0.04979 0.0563021 0.214429
319 2 0.0692976 0.171331 0.0114134
340 2 0.288562 0.104584 0.142125
284 1 0.287634 0.223782 0.190239
285 1 0.418608 0.180395 0.0947613
49 1 0.28738 0.093462 0.0192181
293 2 0.489217 0.0994481 0.173808
135 1 0.379285 0.0942576 0.239077
163 1 0.402258 0.00148303 0.123471
146 1 0.0564266 0.290222 0.0606813
45 1 0.196955 0.363012 0.139047
118 1 0.069603 0.394934 0.21071
252 1 0.0288215 0.448992 0.0694273
315 2 0.153056 0.491272 0.153206
213 1 0.352918 0.353216 0.108292
115 1 0.457138 0.407068 0.22274
353 2 0.468931 0.298598 0.137579
223 1 0.49834 0.407094 0.0550019
358 2 0.0709845 0.0882609 0.477744
224 1 0.210959 0.097322 0.277972
197 1 0.0740769 0.14465 0.361302
281 1 0.240377 0.172773 0.416117
58 1 0.175769 0.0129258 0.404986
344 2 0.0811662 0.0261408 0.326038
41 1 0.427097 0.249289 0.261958
240 1 0.419253 0.0185416 0.396195
321 2 0.3018 0.0585808 0.38065
21 1 0.390138 0.168165 0.40046
299 2 0.320437 0.243467 0.323941
221 1 0.0279652 0.454786 0.344735
22 1 0.0318223 0.3001 0.345968
263 1 0.176416 0.262341 0.296871
81 1 0.174503 0.436736 0.412434
275 1 0.0235043 0.408731 0.486882
323 2 0.141308 0.386697 0.312931
173 1 0.115461 0.263151 0.474814
111 1 0.2228 0.486901 0.271466
194 1 0.335184 0.456008 0.378098
210 1 0.325395 0.361703 0.266222
171 1 0.272943 0.321686 0.416827
317 2 0.47201 0.471464 0.395665
207 1 0.434857 0.334043 0.395909
195 1 0.120414 0.072699 0.682821
57 1 0.0351656 0.17493 0.597933
121 1 0.171815 0.129066 0.549856
108 1 0.0220598 0.243693 0.736547
80 1 0.0326456 0.0153568 0.5747
12 1 0.420081 0.177425 0.586412
150 1 0.305932 0.205611 0.699759
93 1 0.28007 0.0456915 0.676824
100 1 0.426498 0.0893876 0.720626
27 1 0.435757 0.00826181 0.574647
46 1 0.283107 0.239343 0.553574
35 1 0.307355 0.0706234 0.517996
131 1 0.169063 0.275618 0.660851
266 1 0.175242 0.397022 0.556334
155 1 0.0234901 0.331108 0.612592
229 1 0.119365 0.458196 0.683851
273 1 0.268146 0.376777 0.683686
142 1 0.395461 0.476174 0.685005
37 1 0.4151 0.312185 0.652931
28 1 0.344082 0.391581 0.536563
308 2 0.395777 0.279116 0.503533
262 1 0.494313 0.431412 0.564732
65 1 0.0290316 0.0785021 0.824961
128 1 0.156697 0.103437 0.924768
193 1 0.171028 0.173903 0.778969
320 2 0.214446 0.219545 0.893531
90 1 0.075326 0.231307 0.898162
138 1 0.0218578 0.0362806 0.974879
254 1 0.183817 0.0100664 0.812446
25 1 0.302702 0.118424 0.854432
109 1 0.436408 0.131392 0.933254
143 1 0.422837 0.242912 0.793232
359 2 0.253799 0.0048869 0.934455
202 1 0.185255 0.4907 0.979771
286 1 0.242579 0.448775 0.827386
220 1 0.20457 0.338895 0.952217
134 1 0.140323 0.334817 0.800724
119 1 0.0571131 0.383977 0.918081
249 1 0.409435 0.480421 0.847063
76 1 0.327124 0.437922 0.985873
360 2 0.381934 0.365313 0.771821
130 1 0.339507 0.25446 0.982975
19 1 0.433841 0.340946 0.904265
94 1 0.284258 0.297074 0.821811
230 1 0.19921 0.629053 0.210627
87 1 0.109938 0.585111 0.0700328
211 1 0.0943402 0.722829 0.130399
2 1 0.0549132 0.551378 0.236652
147 1 0.268293 0.511944 0.11543
255 1 0.262373 0.663834 0.0476537
168 1 0.364954 0.673482 0.199432
52 1 0.448005 0.684613 0.0501404
102 1 0.431508 0.546084 0.12992
309 2 0.344673 0.562803 0.0285935
329 2 0.343671 0.515142 0.234368
241 1 0.0999811 0.886463 0.133243
198 1 0.217058 0.802071 0.164288
341 2 0.0509226 0.812508 0.222254
59 1 0.230081 0.975343 0.161263
61 1 0.163405 0.948299 0.000823603
292 2 0.462757 0.759102 0.154769
318 2 0.348244 0.759486 0.0894266
149 1 0.302596 0.892011 0.0527428
253 1 0.360135 0.854743 0.189812
139 1 0.448998 0.854906 0.0646209
113 1 0.0723835 0.727778 0.493467
110 1 0.137991 0.581254 0.369365
145 1 0.126932 0.73248 0.30379
68 1 0.211806 0.708389 0.42903
127 1 0.242175 0.555704 0.484053
15 1 0.360317 0.73492 0.454684
259 1 0.445831 0.567891 0.305516
288 1 0.46227 0.720383 0.326178
235 1 0.41254 0.573193 0.459687
234 1 0.314387 0.613205 0.346105
5 1 0.00309375 0.956829 0.43119
14 1 0.120946 0.916096 0.287569
72 1 0.149304 0.859241 0.439345
117 1 0.00191437 0.814423 0.359367
84 1 0.493134 0.977982 0.257886
51 1 0.302718 0.929047 0.443618
277 1 0.412944 0.866367 0.347917
283 1 0.302008 0.963661 0.293614
151 1 0.286485 0.794423 0.327444
144 1 0.0765175 0.603728 0.696294
13 1 0.187676 0.671139 0.591649
237 1 0.0917119 0.556982 0.522656
339 2 0.0723139 0.716391 0.631651
160 1 0.153899 0.740941 0.732209
206 1 0.254263 0.518941 0.625684
29 1 0.340685 0.645817 0.571907
1 1 0.373318 0.619256 0.731909
316 2 0.377668 0.516719 0.562551
188 1 0.307502 0.74816 0.69362
199 1 0.470505 0.740991 0.665919
268 1 0.482441 0.584905 0.614527
242 1 0.498719 0.707795 0.513103
124 1 0.114615 0.837326 0.608906
42 1 0.225085 0.892337 0.728294
67 1 0.19059 0.95969 0.559168
140 1 0.0580965 0.934865 0.72825
48 1 0.0134003 0.796641 0.726394
183 1 0.267334 0.817275 0.555966
289 2 0.316021 0.95176 0.587718
250 1 0.389904 0.882009 0.672602
349 2 0.380728 0.775315 0.582142
343 2 0.495904 0.98189 0.718883
251 1 0.428627 0.864787 0.508086
276 1 0.0248106 0.708752 0.980662
3 1 0.216103 0.608515 0.756324
31 1 0.0974124 0.513755 0.842011
38 1 0.159571 0.650425 0.916011
191 1 0.031682 0.680714 0.821481
296 2 0.486271 0.547105 0.763175
9 1 0.25499 0.732175 0.849291
20 1 0.303553 0.593332 0.896622
64 1 0.456723 0.536103 0.976149
167 1 0.483152 0.632732 0.860567
356 2 0.00637959 0.794571 0.873403
307 2 0.0821801 0.96784 0.873135
24 1 0.0425251 0.871872 0.979558
96 1 0.125826 0.839954 0.851292
218 1 0.183133 0.791547 0.993618
342 2 0.419723 0.873477 0.894753
98 1 0.272027 0.887496 0.88978
122 1 0.3695 0.965913 0.797291
63 1 0.412369 0.764408 0.817544
246 1 0.392941 0.98507 0.964289
327 2 0.324232 0.845967 0.772162
6 1 0.350744 0.782276 0.959861
166 1 0.499448 0.882707 0.791054
30 1 0.606194 0.0554813 0.180864
357 2 0.618816 0.146661 0.0531284
228 1 0.668661 0.0378746 0.0169602
280 1 0.557709 0.202142 0.162558
279 1 0.726953 0.136396 0.122278
301 2 0.726822 0.0667571 0.248704
181 1 0.524113 0.060821 0.0532414
169 1 0.849758 0.0492698 0.0411198
282 1 0.86292 0.0867761 0.192414
11 1 0.836619 0.222926 0.0720695
222 1 0.982124 0.127383 0.10078
337 2 0.800936 0.194209 0.214298
78 1 0.931456 0.21737 0.2284
176 1 0.681293 0.270029 0.0554058
203 1 0.709917 0.419776 0.0769276
265 1 0.596203 0.360037 0.162777
333 2 0.698834 0.437694 0.205191
107 1 0.524404 0.251816 0.00367159
336 2 0.584107 0.495774 0.021392
125 1 0.819757 0.475144 0.179551
236 1 0.775176 0.330628 0.192594
291 2 0.819716 0.360759 0.0742935
10 1 0.928006 0.342416 0.149132
351 2 0.963939 0.47323 0.194728
215 1 0.85573 0.483643 0.0206914
298 2 0.50351 0.219169 0.404064
258 1 0.685879 0.214932 0.269723
7 1 0.536173 0.110084 0.482678
233 1 0.650149 0.215028 0.423958
40 1 0.654523 0.0439481 0.36192
92 1 0.541435 0.134536 0.299963
297 2 0.942423 0.198599 0.3618
136 1 0.932477 0.0739486 0.324302
231 1 0.796206 0.13202 0.350635
186 1 0.829095 0.0109531 0.442258
182 1 0.941253 0.114247 0.47535
89 1 0.724566 0.334052 0.495208
106 1 0.571067 0.457127 0.310248
158 1 0.560296 0.297375 0.319455
196 1 0.577617 0.390314 0.453484
69 1 0.716707 0.368737 0.332781
287 1 0.837345 0.276634 0.381703
189 1 0.952224 0.258136 0.487243
34 1 0.90483 0.390623 0.299946
304 2 0.927145 0.382695 0.418194
209 1 0.819698 0.447808 0.409703
354 2 0.780156 0.498157 0.29903
133 1 0.664396 0.193536 0.584956
274 1 0.566037 0.0669721 0.644338
17 1 0.537066 0.216148 0.69095
330 2 0.69818 0.0620151 0.653989
335 2 0.669291 0.246117 0.720774
70 1 0.690508 0.05562 0.513371
103 1 0.777088 0.161365 0.700257
245 1 0.937236 0.0952088 0.691453
132 1 0.892149 0.240731 0.633241
71 1 0.822819 0.0589924 0.602262
217 1 0.789951 0.000922583 0.747535
272 1 0.792129 0.183632 0.50001
126 1 0.533822 0.260592 0.524247
170 1 0.615078 0.34709 0.635247
355 2 0.726839 0.44446 0.656288
180 1 0.674552 0.469827 0.551019
137 1 0.51303 0.392333 0.748057
201 1 0.589231 0.49997 0.6848
99 1 0.765811 0.318601 0.66032
324 2 0.902451 0.365122 0.669998
74 1 0.874513 0.375949 0.55359
178 1 0.829701 0.457054 0.722181
177 1 0.962177 0.487005 0.626693
54 1 0.643457 0.115346 0.764651
172 1 0.512638 0.0272487 0.843061
290 2 0.513228 0.154197 0.824786
243 1 0.593356 0.145804 0.926694
55 1 0.734168 0.243937 0.827166
8 1 0.680756 0.0106072 0.869741
261 1 0.76465 0.142142 0.944704
332 2 0.754924 0.107569 0.816849
227 1 0.865143 0.0398398 0.887739
232 1 0.937843 0.17507 0.952814
82 1 0.88823 0.171768 0.810005
305 2 0.833449 0.248937 0.91884
348 2 0.922759 0.00266195 0.778937
346 2 0.657472 0.267356 0.930756
77 1 0.573836 0.265826 0.834372
269 1 0.604263 0.382797 0.95124
238 1 0.670401 0.387946 0.780287
39 1 0.988959 0.393594 0.758458
44 1 0.77291 0.358655 0.95256
352 2 0.776473 0.452253 0.848221
322 2 0.958037 0.276865 0.845483
114 1 0.927389 0.332451 0.990492
50 1 0.897415 0.428228 0.872983
256 1 0.855157 0.315278 0.777561
328 2 0.646218 0.643801 0.137589
26 1 0.739249 0.570762 0.089559
120 1 0.592621 0.630891 0.00766405
184 1 0.591032 0.51591 0.142232
267 1 0.532623 0.664921 0.192805
36 1 0.73274 0.7288 0.0654572
148 1 0.680667 0.735292 0.22175
105 1 0.830403 0.65424 0.173478
53 1 0.951448 0.575837 0.115192
83 1 0.98384 0.694259 0.233909
278 1 0.862718 0.643865 0.0188815
247 1 0.582814 0.765513 0.0797317
326 2 0.697557 0.836554 0.135897
248 1 0.593056 0.922516 0.0993462
88 1 0.737561 0.980588 0.145652
239 1 0.543964 0.820597 0.231188
86 1 0.97727 0.923016 0.249973
66 1 0.938232 0.802673 0.11344
219 1 0.801262 0.838692 0.207038
338 2 0.854499 0.953888 0.171476
192 1 0.833777 0.896911 0.0605569
23 1 0.967773 0.972891 0.101962
95 1 0.703968 0.578174 0.250329
226 1 0.561916 0.543419 0.476871
4 1 0.650811 0.673414 0.479391
123 1 0.587046 0.640894 0.342528
334 2 0.730226 0.664917 0.338461
62 1 0.686716 0.525855 0.392847
85 1 0.841388 0.715487 0.313954
60 1 0.898058 0.55184 0.285986
264 1 0.810549 0.610187 0.422543
112 1 0.898854 0.730655 0.475231
200 1 0.938622 0.525452 0.450762
75 1 0.995691 0.651282 0.380645
312 2 0.744565 0.82488 0.333225
141 1 0.659424 0.917965 0.271546
56 1 0.701207 0.91149 0.432396
32 1 0.627262 0.785041 0.359316
165 1 0.55047 0.936404 0.412391
311 2 0.510113 0.813209 0.414759
187 1 0.863482 0.86389 0.395903
129 1 0.814429 0.970961 0.291548
164 1 0.756004 0.772993 0.444299
310 2 0.90986 0.806228 0.263765
43 1 0.691421 0.60284 0.624834
347 2 0.588708 0.685102 0.594885
157 1 0.57601 0.643377 0.732471
159 1 0.737336 0.744201 0.597335
314 2 0.727872 0.572603 0.505165
350 2 0.832887 0.650575 0.556383
79 1 0.837007 0.619514 0.690267
313 2 0.958615 0.675754 0.711241
104 1 0.973518 0.645222 0.581427
162 1 0.829343 0.525067 0.564689
116 1 0.603623 0.822417 0.512668
257 1 0.613595 0.782566 0.691083
152 1 0.630008 0.952068 0.74459
154 1 0.538118 0.900395 0.622074
185 1 0.692711 0.918058 0.604696
300 2 0.578855 0.975495 0.525677
156 1 0.759396 0.852204 0.721163
161 1 0.88292 0.768079 0.644195
153 1 0.982282 0.850077 0.541189
212 1 0.819627 0.871042 0.546575
18 1 0.908347 0.941762 0.651736
345 2 0.918225 0.984646 0.526324
101 1 0.729072 0.70019 0.756255
216 1 0.717061 0.548021 0.767929
175 1 0.640278 0.653904 0.868254
306 2 0.542073 0.737261 0.804902
294 2 0.727484 0.637589 0.972857
204 1 0.69685 0.516795 0.946858
225 1 0.576785 0.500389 0.844333
47 1 0.882189 0.735345 0.805721
303 2 0.917724 0.667257 0.910314
208 1 0.825527 0.592345 0.867168
214 1 0.952467 0.543502 0.775547
260 1 0.757493 0.743424 0.913698
271 1 0.978336 0.550404 0.942562
331 2 0.630608 0.7561 0.959686
270 1 0.510575 0.779305 0.938645
16 1 0.632449 0.827911 0.848938
33 1 0.545029 0.928003 0.954413
244 1 0.699472 0.8639 0.986249
295 2 0.923154 0.948284 0.972473
325 2 0.779272 0.976953 0.972154
179 1 0.902347 0.792396 0.960186
97 1 0.811432 0.893515 0.874597
205 1 0.962643 0.911407 0.857304
302 2 0.887868 0.859714 0.771457
ITEM: TIMESTEP
10000000
ITEM: NUMBER OF ATOMS
360
ITEM: BOX BOUNDS pp pp pp
0.0000000000000000e+00 6.6943295008216896e+00
0.0000000000000000e+00 6.6943295008216896e+00
0.0000000000000000e+00 6.6943295008216896e+00
ITEM: ATOMS id type xs ys zs
325 2 0.0973526 0.130076 0.0925061
224 1 0.173356 0.108117 0.219274
91 1 0.194563 0.040209 0.057041
138 1 0.0400776 0.0179947 0.0297576
190 1 0.0169286 0.0893552 0.183999
111 1 0.302859 0.445352 0.268685
102 1 0.191843 0.477686 0.0180236
284 1 0.259506 0.174308 0.105947
340 2 0.293241 0.0561786 0.19473
163 1 0.422551 0.143246 0.173375
149 1 0.351113 0.0217042 0.0755684
207 1 0.43847 0.412156 0.346227
222 1 0.117505 0.253857 0.133218
28 1 0.316429 0.301879 0.342573
119 1 0.100737 0.41053 0.127276
319 2 0.223353 0.391695 0.155212
174 1 0.24603 0.331347 0.0427717
197 1 0.031878 0.120416 0.427758
290 2 0.425043 0.240121 0.407716
345 2 0.242077 0.368578 0.43677
176 1 0.398529 0.243592 0.0320482
346 2 0.0140966 0.315785 0.0668727
147 1 0.330628 0.452073 0.108435
210 1 0.315041 0.308438 0.185458
41 1 0.455374 0.408636 0.191567
323 2 0.21445 0.230692 0.293451
63 1 0.33267 0.297708 0.495252
297 2 0.0764712 0.0778736 0.308421
281 1 0.179932 0.121208 0.374236
78 1 0.0841296 0.213653 0.293519
58 1 0.267312 0.00277921 0.311997
349 2 0.270573 0.210584 0.416744
35 1 0.382724 0.124384 0.437965
280 1 0.32042 0.140857 0.288533
92 1 0.480817 0.101501 0.307985
121 1 0.268708 0.0368841 0.469986
263 1 0.173667 0.358507 0.260801
341 2 0.0755813 0.354638 0.360818
266 1 0.164472 0.274861 0.407229
68 1 0.191158 0.465787 0.369473
146 1 0.00300996 0.185365 0.0232357
235 1 0.330223 0.458988 0.447543
21 1 0.43527 0.258287 0.266354
120 1 0.492601 0.392326 0.0220657
108 1 0.0102347 0.475137 0.0122971
34 1 0.0960664 0.398953 0.477555
22 1 0.0161679 0.361047 0.241696
131 1 0.0929199 0.106439 0.587461
206 1 0.171414 0.224314 0.671801
134 1 0.245483 0.0831716 0.660998
273 1 0.102481 0.0844273 0.736425
17 1 0.226221 0.177952 0.534023
46 1 0.0931456 0.246286 0.536076
150 1 0.377394 0.14688 0.60727
12 1 0.494586 0.22923 0.52491
336 2 0.294622 0.243733 0.615019
324 2 0.212463 0.463276 0.657713
85 1 0.21341 0.355934 0.569481
360 2 0.0722124 0.353004 0.602612
155 1 0.138977 0.361324 0.719531
313 2 0.145409 0.489389 0.897513
130 1 0.449943 0.391252 0.520783
188 1 0.28108 0.333268 0.700385
137 1 0.458227 0.422775 0.715994
274 1 0.415045 0.290582 0.644807
94 1 0.338917 0.442203 0.607292
316 2 0.446301 0.501124 0.578066
45 1 0.29006 0.256715 0.90417
65 1 0.0495742 0.0971793 0.886107
322 2 0.168339 0.0639199 0.924598
128 1 0.202401 0.144488 0.834605
143 1 0.0940987 0.255077 0.828639
296 2 0.225786 0.273391 0.796906
73 1 0.15644 0.195113 0.98462
249 1 0.39078 0.342521 0.815567
100 1 0.329797 0.200858 0.74646
77 1 0.463546 0.119206 0.761815
122 1 0.328187 0.0515916 0.792332
181 1 0.434355 0.024354 0.922976
25 1 0.293291 0.107723 0.950106
109 1 0.427384 0.175467 0.905696
229 1 0.0767917 0.478762 0.626702
87 1 0.104524 0.334867 0.976371
220 1 0.201359 0.380742 0.859331
90 1 0.0371883 0.409781 0.856363
268 1 0.33805 0.414977 0.948957
37 1 0.289059 0.465428 0.762909
299 2 0.452554 0.307476 0.927133
275 1 0.0100774 0.227976 0.69129
76 1 0.0705277 0.583764 0.10329
66 1 0.126801 0.663619 0.215216
211 1 0.121638 0.733298 0.0592851
145 1 0.20054 0.52853 0.172048
110 1 0.244965 0.624974 0.0511928
198 1 0.252468 0.772644 0.157804
19 1 0.372099 0.712444 0.0523026
6 1 0.353817 0.601631 0.165947
285 1 0.482955 0.540959 0.10689
310 2 0.370143 0.759466 0.211822
253 1 0.484459 0.839016 0.208533
241 1 0.136352 0.888579 0.0592224
151 1 0.110609 0.832201 0.201405
283 1 0.234749 0.937545 0.179998
123 1 0.485909 0.692359 0.146933
84 1 0.361314 0.872673 0.12309
359 2 0.26304 0.926127 0.053287
51 1 0.347537 0.862696 0.286981
135 1 0.406851 0.988502 0.223247
75 1 0.0550109 0.55022 0.481717
170 1 0.478109 0.533013 0.458659
15 1 0.128449 0.626479 0.367023
113 1 0.0310926 0.714204 0.46772
351 2 0.241504 0.583212 0.440608
72 1 0.229687 0.745517 0.301023
5 1 0.12038 0.995181 0.432266
81 1 0.270395 0.592005 0.30765
29 1 0.452232 0.687246 0.454031
259 1 0.459803 0.552716 0.278616
308 2 0.365956 0.583545 0.406662
230 1 0.380827 0.701806 0.317367
183 1 0.299303 0.710219 0.446004
221 1 0.0714645 0.498324 0.271171
153 1 0.098708 0.846319 0.365828
14 1 0.125502 0.974893 0.270769
318 2 0.161979 0.736854 0.417759
293 2 0.205725 0.872703 0.289776
240 1 0.394977 0.968309 0.397312
277 1 0.472016 0.823173 0.374087
67 1 0.241354 0.879443 0.421558
117 1 0.0240312 0.729348 0.309006
248 1 0.494237 0.956837 0.085639
251 1 0.373263 0.838315 0.49568
344 2 0.114452 0.978291 0.142592
315 2 0.0130156 0.880612 0.278408
127 1 0.176125 0.657581 0.521839
124 1 0.110247 0.62262 0.670284
288 1 0.258134 0.590538 0.675272
218 1 0.249527 0.80056 0.995939
286 1 0.412865 0.56843 0.69095
199 1 0.361563 0.72323 0.602411
342 2 0.457374 0.692444 0.686093
142 1 0.346271 0.578408 0.533098
42 1 0.200929 0.760731 0.668521
140 1 0.0576456 0.950378 0.636896
13 1 0.143998 0.813973 0.522269
112 1 0.0367743 0.787206 0.648156
16 1 0.475354 0.811701 0.73262
195 1 0.217213 0.939954 0.586422
289 2 0.262058 0.802297 0.563656
250 1 0.337406 0.872932 0.667347
300 2 0.173315 0.887576 0.694736
49 1 0.243137 0.941618 0.932946
98 1 0.372524 0.888732 0.82674
191 1 0.104536 0.592265 0.951446
160 1 0.18938 0.661422 0.809653
327 2 0.184456 0.681207 0.932097
193 1 0.376733 0.999103 0.570811
3 1 0.147211 0.511269 0.782156
255 1 0.336228 0.737297 0.750048
1 1 0.379061 0.57069 0.988649
202 1 0.246596 0.557041 0.903529
339 2 0.314988 0.610754 0.783973
20 1 0.32838 0.702405 0.893637
270 1 0.469157 0.648361 0.806314
139 1 0.389289 0.87412 0.972134
38 1 0.0961901 0.764186 0.906268
254 1 0.195498 0.977825 0.797116
61 1 0.0886756 0.931119 0.908008
9 1 0.217601 0.820342 0.823465
96 1 0.0777735 0.859669 0.781393
237 1 0.201853 0.501562 0.526973
247 1 0.477143 0.774263 0.892525
47 1 0.0121338 0.687522 0.793526
186 1 -0.00334735 0.88088 0.512424
347 2 0.408742 0.980714 0.717241
309 2 0.481689 0.505639 0.960795
167 1 0.401816 0.512011 0.836962
261 1 0.652484 0.178985 0.0825288
30 1 0.573371 0.0574328 0.176532
352 2 0.687884 0.146459 0.214076
303 2 0.984938 0.475754 0.143948
279 1 0.753143 0.0579818 0.135766
11 1 0.805545 0.208494 0.178147
23 1 0.887795 0.112096 0.0870547
10 1 0.958926 0.247091 0.163835
302 2 0.88561 0.251406 0.0564298
357 2 0.817164 0.425902 0.353415
64 1 0.679234 0.310279 0.171518
234 1 0.596551 0.464382 0.17969
321 2 0.612521 0.370075 0.0804887
107 1 0.536562 0.282946 0.134376
2 1 0.762485 0.454899 0.126225
320 2 0.798227 0.351524 0.205896
252 1 0.775983 0.306042 0.0450976
118 1 0.904293 0.386753 0.117955
332 2 0.869391 0.324713 0.451699
158 1 0.585159 0.205186 0.255285
40 1 0.643124 0.0927145 0.339661
70 1 0.692713 0.179758 0.46616
103 1 0.569012 0.240428 0.395396
7 1 0.530062 0.0812239 0.458085
223 1 0.719653 0.236837 0.311609
89 1 0.776998 0.0507353 0.443671
258 1 0.78263 0.0934894 0.289854
287 1 0.834123 0.196726 0.416128
326 2 0.882151 0.0542134 0.374702
282 1 0.933673 0.145861 0.299076
169 1 0.634792 0.0153249 0.0296905
126 1 0.739144 0.349127 0.425829
106 1 0.71104 0.417171 0.285205
203 1 0.56848 0.353566 0.294491
196 1 0.586339 0.414482 0.435195
338 2 0.691277 0.464792 0.407647
236 1 0.845464 0.44789 0.489773
265 1 0.875628 0.307729 0.310955
60 1 0.888373 0.459131 0.246154
125 1 0.959484 0.42188 0.384351
182 1 0.919514 0.016697 0.490599
173 1 0.985049 0.265459 0.407644
86 1 0.87456 0.00858639 0.211223
228 1 0.518711 0.112269 0.0433824
238 1 0.701971 0.179781 0.624869
71 1 0.674033 0.0345695 0.5641
172 1 0.556323 0.225739 0.665905
133 1 0.622531 0.107882 0.753089
354 2 0.600473 0.156266 0.55053
185 1 0.817294 -0.00502476 0.741808
82 1 0.709873 0.249107 0.752505
337 2 0.721485 0.06949 0.682094
80 1 0.954384 0.0843199 0.67135
272 1 0.849793 0.211489 0.689168
245 1 0.817086 0.0818699 0.598574
189 1 0.926318 0.174005 0.547139
256 1 0.883128 0.447558 0.813658
209 1 0.72855 0.425981 0.573983
194 1 0.623583 0.308312 0.548189
335 2 0.708235 0.318339 0.638738
115 1 0.579384 0.45482 0.585115
201 1 0.610319 0.367988 0.71422
355 2 0.525585 0.347595 0.625707
233 1 0.796761 0.273832 0.555635
216 1 0.817052 0.364552 0.694511
99 1 0.985267 0.381684 0.706553
226 1 0.953021 0.340671 0.558294
307 2 0.973248 0.477738 0.547029
243 1 0.582014 0.109575 0.908939
55 1 0.563438 0.229173 0.82301
132 1 0.6974 0.225542 0.931087
54 1 0.759338 0.110532 0.822021
353 2 0.989386 0.215115 0.900766
295 2 0.917161 0.0877141 0.950434
48 1 0.912618 0.121461 0.820702
232 1 0.859623 0.196729 0.944033
304 2 0.826163 0.22388 0.813337
4 1 0.727863 0.448926 0.809564
269 1 0.557347 0.259852 0.98575
225 1 0.528716 0.398361 0.855186
343 2 0.652496 0.329515 0.840627
93 1 0.515375 0.0766785 0.610572
114 1 0.752235 0.0869441 0.974363
39 1 0.934703 0.33285 0.959522
50 1 0.824871 0.467307 0.970686
57 1 0.92761 0.293233 0.810648
215 1 0.796099 0.330756 0.884835
184 1 0.666568 0.380062 0.966832
334 2 0.493024 0.306161 0.761895
36 1 0.62246 0.720113 0.0660012
95 1 0.617691 0.612968 0.170831
26 1 0.614952 0.503626 0.0386636
278 1 0.749241 0.592282 0.0432981
291 2 0.69753 0.534631 0.258105
105 1 0.79679 0.606014 0.198268
53 1 0.88846 0.552818 0.0946207
179 1 0.845997 0.725363 0.0634411
312 2 0.880336 0.700204 0.192683
83 1 0.96676 0.603997 0.216113
301 2 0.751086 0.856715 0.244737
350 2 0.586548 0.744712 0.209323
52 1 0.743754 0.751355 0.183598
141 1 0.635021 0.855886 0.136932
187 1 0.930866 0.834798 0.386372
129 1 0.690817 0.970551 0.244612
213 1 0.641148 0.558683 0.497037
317 2 0.729997 0.785682 0.0615935
88 1 0.78013 0.897829 0.122698
358 2 0.897816 0.846698 0.105045
192 1 0.89419 0.968516 0.0531355
219 1 0.8848 0.839039 0.233208
271 1 0.97724 0.664351 0.0108297
231 1 0.827949 0.933649 0.343676
306 2 0.580326 0.64991 0.438513
171 1 0.537168 0.686295 0.311422
116 1 0.689391 0.661126 0.317489
264 1 0.602317 0.532285 0.348972
104 1 0.76355 0.66526 0.453531
62 1 0.962458 0.575149 0.360918
292 2 0.891572 0.712367 0.434727
162 1 0.800582 0.553374 0.359396
148 1 0.860041 0.693749 0.312335
136 1 0.988754 0.990487 0.333986
164 1 0.756205 0.805007 0.389106
32 1 0.603901 0.771378 0.444179
239 1 0.543643 0.96094 0.315559
267 1 0.621735 0.828117 0.293732
56 1 0.663431 0.951072 0.414559
165 1 0.522594 0.91544 0.498901
24 1 1.00528 0.834409 0.00496999
276 1 0.986722 0.758315 0.152277
69 1 0.893839 0.600241 0.499633
168 1 0.505342 0.803152 0.0455445
59 1 1.00017 0.928573 0.159806
18 1 0.794438 0.897864 0.506488
180 1 0.722175 0.543453 0.680022
27 1 0.583371 0.694892 0.707967
242 1 0.660957 0.703127 0.574254
246 1 0.516305 0.982427 0.799668
157 1 0.578792 0.523306 0.736896
204 1 0.590998 0.536495 0.885602
161 1 0.809563 0.675817 0.613673
298 2 0.758927 0.55116 0.551292
144 1 0.967912 0.635361 0.629668
212 1 0.773182 0.839992 0.827519
356 2 0.969017 0.95392 0.945222
152 1 0.660299 0.860647 0.556015
217 1 0.6612 0.953725 0.693691
314 2 0.652901 0.814069 0.699496
166 1 0.516048 0.933963 0.66091
205 1 0.974558 0.975539 0.786456
330 2 0.772316 0.960704 0.620898
262 1 0.515442 0.624914 0.581286
214 1 0.899643 0.763993 0.721093
257 1 0.773493 0.830125 0.656013
43 1 0.902707 0.768059 0.546774
159 1 0.899776 0.917277 0.631512
348 2 0.766472 0.77278 0.537631
244 1 0.677135 0.873889 0.979064
311 2 0.885412 0.887132 0.758744
74 1 0.878133 0.501301 0.625226
156 1 0.840904 0.850805 0.977645
178 1 0.737487 0.708807 0.745512
101 1 0.612564 0.695382 0.858411
260 1 0.737001 0.724546 0.956086
329 2 0.667673 0.605678 0.792263
294 2 0.649618 0.628538 0.973118
97 1 0.944841 0.84819 0.868403
154 1 0.504669 0.782399 0.574056
328 2 0.764095 0.971345 1.01731
305 2 0.85478 0.614919 0.982075
44 1 0.865542 0.610801 0.742767
208 1 0.765104 0.591197 0.8779
177 1 0.87498 0.712766 0.886739
31 1 0.951339 0.562951 0.898826
331 2 0.589382 0.780097 0.947738
33 1 0.544816 0.912061 0.936395
8 1 0.67442 0.98121 0.854163
227 1 0.841428 0.985372 0.897011
79 1 0.605814 0.843118 0.810145
333 2 0.708166 0.499021 0.940532
200 1 1.00148 0.531242 0.753824
175 1 0.509837 0.651491 0.983536
ITEM: TIMESTEP
20000000
ITEM: NUMBER OF ATOMS
360
ITEM: BOX BOUNDS pp pp pp
0.0000000000000000e+00 6.6943295008216896e+00
0.0000000000000000e+00 6.6943295008216896e+00
0.0000000000000000e+00 6.6943295008216896e+00
ITEM: ATOMS id type xs ys zs
72 1 0.184577 0.123764 0.0419172
86 1 0.0374321 0.212425 0.0294618
283 1 0.166107 0.0808019 0.207775
198 1 0.0423472 0.0558556 0.0827706
224 1 0.150415 0.219997 0.164232
296 2 0.264515 0.155516 0.152384
135 1 0.372979 0.202116 0.0504009
181 1 0.4582 0.118284 0.155377
129 1 0.307722 0.0458883 0.099704
187 1 0.351727 0.059424 0.244527
345 2 0.402409 0.214231 0.227759
103 1 0.398666 0.330096 0.286809
351 2 0.4913 0.274309 0.359872
149 1 0.228345 0.271526 0.031564
90 1 0.0734404 0.35078 0.109939
332 2 0.199824 0.344677 0.134799
196 1 0.49959 0.425733 0.385037
211 1 0.481796 0.273555 0.14192
249 1 0.298245 0.280114 0.173907
55 1 0.329225 0.393003 0.0779608
312 2 0.425812 0.319701 0.0390614
41 1 0.449312 0.488221 0.250793
94 1 0.29323 0.4502 0.236498
194 1 0.456365 0.300051 0.483272
360 2 0.249293 0.20207 0.418091
348 2 0.154144 0.0880198 0.335009
222 1 0.129452 0.149898 0.446826
234 1 0.0856416 0.209825 0.307143
317 2 0.0316151 0.241068 0.425771
281 1 0.23509 0.192285 0.288727
65 1 0.0285764 0.0408402 0.256049
174 1 0.124504 0.48312 0.2615
210 1 0.316021 0.316197 0.425347
150 1 0.276855 0.0693359 0.393843
274 1 0.389446 0.1815 0.347351
58 1 0.486419 0.0601385 0.326862
226 1 0.0989385 0.444651 0.497651
5 1 0.157869 0.304625 0.4161
145 1 0.180123 0.337764 0.26554
350 2 0.0748967 0.411461 0.368626
263 1 0.222359 0.450895 0.383154
119 1 0.0145408 0.350787 0.264597
132 1 0.48543 0.428031 0.10485
277 1 0.423546 0.0347924 0.469999
324 2 0.0965752 0.448906 0.0256833
147 1 0.192355 0.481674 0.100873
356 2 0.424807 0.00818703 0.0857095
228 1 0.490093 0.0955763 3.55898e-05
273 1 0.120933 0.0785611 0.675584
17 1 0.202665 0.205056 0.611487
197 1 0.0216552 0.143145 0.572959
282 1 0.202805 0.0575152 0.541579
143 1 0.00133274 0.166025 0.750776
298 2 0.0934 0.238868 0.686202
12 1 0.31285 0.110903 0.671638
300 2 0.323947 0.0457673 0.565167
217 1 0.448882 0.157898 0.598878
63 1 0.328978 0.164987 0.508757
329 2 0.483203 0.310385 0.884484
289 2 0.138375 0.393343 0.615919
74 1 0.205222 0.329667 0.709397
46 1 0.0822791 0.288778 0.552643
124 1 0.0476321 0.368243 0.714803
34 1 0.231593 0.343701 0.550282
155 1 0.340045 0.258688 0.783264
85 1 0.357142 0.277302 0.613012
29 1 0.349189 0.419918 0.676134
93 1 0.487514 0.390196 0.618955
25 1 0.358157 0.323071 0.925976
270 1 0.441502 0.396838 0.798944
100 1 0.212577 0.172892 0.770401
91 1 0.117499 0.107122 0.881789
352 2 0.147143 0.208116 0.947485
220 1 0.292847 0.425212 0.821071
188 1 0.480426 0.272884 0.718489
47 1 0.211014 0.491068 0.710524
133 1 0.45714 0.103697 0.740741
163 1 0.27665 0.165791 0.912285
302 2 0.366681 0.0918929 0.975006
45 1 0.338109 0.062946 0.831458
204 1 0.436139 0.191154 0.883061
137 1 0.377652 0.438253 0.51964
73 1 0.1132 0.271105 0.829437
76 1 0.136861 0.429613 0.824919
294 2 0.230277 0.28492 0.867431
87 1 0.109246 0.341351 0.962374
221 1 0.233377 0.441717 0.965046
49 1 0.193171 0.00617592 0.795346
311 2 0.47054 0.0657536 0.874458
3 1 0.386628 0.474381 0.932819
313 2 0.0863648 -0.00119134 0.567348
254 1 0.0311342 0.0116402 0.80669
77 1 0.234149 0.00903279 0.954178
28 1 0.169864 0.628219 0.179383
6 1 0.0457471 0.710068 0.126714
123 1 0.0415173 0.521449 0.120849
35 1 0.365777 0.50319 0.381044
164 1 0.119807 0.995085 0.417148
285 1 0.356621 0.535109 0.123901
191 1 0.320206 0.697013 0.118375
247 1 0.446376 0.624587 0.0295019
186 1 0.428848 0.8165 0.25255
16 1 0.478551 0.736015 0.132234
218 1 0.134765 0.921715 0.245595
120 1 0.165814 0.964422 0.0976453
193 1 0.186152 0.806966 0.114853
81 1 0.0362116 0.889559 0.123519
318 2 0.376752 0.811285 0.135897
271 1 0.302869 0.894479 0.0558981
154 1 0.291235 0.908808 0.210983
30 1 0.453571 0.963977 0.205802
122 1 0.472731 0.887856 0.07287
68 1 0.0474967 0.616156 0.260537
125 1 0.0391408 0.70572 0.388363
288 1 0.110507 0.570008 0.397643
315 2 0.156291 0.668289 0.321644
237 1 0.260639 0.597585 0.300457
151 1 0.1072 0.766912 0.253356
333 2 0.381405 0.566593 0.49253
111 1 0.258109 0.748234 0.261497
15 1 0.000619135 0.925271 0.492964
51 1 0.411265 0.65107 0.246629
355 2 0.379642 0.657406 0.379682
183 1 0.277432 0.627725 0.462025
280 1 0.381096 0.937055 0.348021
307 2 0.0650733 0.80547 0.488151
323 2 0.247959 0.99143 0.298435
199 1 0.351312 0.776205 0.383027
7 1 0.227246 0.880159 0.377216
121 1 0.180448 0.743202 0.429348
24 1 0.0668134 0.859019 0.373885
70 1 0.443435 0.869321 0.468235
50 1 0.125916 0.628779 0.0167344
240 1 0.490311 0.588691 0.392407
266 1 0.0985204 0.541041 0.628261
75 1 0.232232 0.656937 0.599677
127 1 0.129882 0.66865 0.71896
246 1 0.316079 0.880215 0.883426
301 2 0.135943 0.607936 0.52946
293 2 0.194706 0.86514 0.987535
27 1 0.364468 0.576351 0.610576
195 1 0.351221 0.712765 0.704182
242 1 0.495044 0.653543 0.653182
349 2 0.365458 0.999124 0.714053
131 1 0.104801 0.732337 0.57631
96 1 0.0997119 0.909818 0.716127
166 1 0.160358 0.890045 0.531559
276 1 0.213396 0.808192 0.66778
330 2 0.234921 0.882379 0.776737
42 1 0.258902 0.964934 0.655947
140 1 0.290165 0.780638 0.53113
230 1 0.423701 0.688689 0.50394
141 1 0.439738 0.797152 0.619018
253 1 0.35738 0.859275 0.739718
303 2 0.33228 0.867902 0.616895
134 1 0.426974 0.958318 0.601039
38 1 0.221629 0.573814 0.852504
66 1 0.118503 0.679242 0.873497
336 2 0.114891 0.548218 0.779327
31 1 0.0720799 0.523158 0.91844
308 2 0.252137 0.623177 0.721809
104 1 0.359058 0.552578 0.763121
299 2 0.467851 0.639659 0.791123
9 1 0.370694 0.651557 0.8954
157 1 0.461167 0.957271 0.803371
342 2 0.122866 0.778684 0.767919
117 1 0.306718 0.935701 0.493566
192 1 0.0881016 0.964877 0.964524
61 1 0.150411 0.860848 0.86555
173 1 0.228423 0.505503 0.551819
337 2 0.394056 0.770828 0.860715
116 1 0.248998 0.733095 0.812941
243 1 0.397127 0.779414 0.993939
43 1 0.486454 0.776963 0.769791
19 1 0.251006 0.756361 0.960078