ITEM: TIMESTEP
0
ITEM: NUMBER OF ATOMS
360
ITEM: BOX BOUNDS pp pp pp
0.0000000000000000e+00 6.6943295008216896e+00
0.0000000000000000e+00 6.6943295008216896e+00
0.0000000000000000e+00 6.6943295008216896e+00
ITEM: ATOMS id type xs ys zs
313 2 0.148356 0.0924752 0.12703
179 1 0.108482 0.243978 0.0632391
173 1 0.00893616 0.116087 0.104364
8 1 0.24483 0.113566 0.216878
6 1 0.0780059 0.171917 0.220298
72 1 0.360899 0.214757 0.199537
327 2 0.354065 0.107172 0.139873
21 1 0.263761 0.185876 0.0649617
275 1 0.43913 0.117352 0.0590742
231 1 0.443161 0.030154 0.176071
32 1 0.259964 0.0295512 0.0800155
82 1 0.194236 0.272948 0.1822
238 1 0.0527616 0.323422 0.183735
83 1 0.170552 0.390198 0.077896
250 1 0.193795 0.414698 0.227253
112 1 0.0476516 0.48109 0.181222
78 1 0.0334664 0.414084 0.0249645
302 2 0.270466 0.311513 0.0928665
61 1 0.482977 0.41317 0.207523
329 2 0.426284 0.434646 0.0862862
190 1 0.399054 0.315147 0.0976249
222 1 0.348205 0.356623 0.245009
164 1 0.30637 0.447903 0.115913
134 1 0.0176392 0.0153687 0.398211
35 1 0.0489454 0.183151 0.401504
310 2 0.10872 0.0628725 0.267909
271 1 0.1774 0.114776 0.357383
178 1 0.179449 0.216416 0.476469
169 1 0.414727 0.238212 0.346758
125 1 0.321228 0.165982 0.42984
172 1 0.365496 0.093775 0.296868
304 2 0.268717 0.21203 0.300834
28 1 0.0295609 0.31918 0.462909
168 1 0.0462114 0.423322 0.334114
284 1 0.0672501 0.468078 0.479664
294 2 0.143033 0.341674 0.423295
186 1 0.139234 0.263378 0.323009
31 1 0.206246 0.471993 0.38779
11 1 0.453799 0.451559 0.35925
153 1 0.364077 0.400183 0.469048
340 2 0.33078 0.44069 0.333596
16 1 0.261618 0.33515 0.370746
239 1 0.123912 0.137612 0.692034
62 1 0.205889 0.0189974 0.648569
86 1 0.238985 0.0786349 0.508171
180 1 0.0946668 0.0735581 0.526021
265 1 0.0531523 0.222156 0.576247
306 2 0.000941437 0.151105 0.749485
155 1 0.0134849 0.0175287 0.749205
191 1 0.270734 0.15954 0.647969
266 1 0.446097 0.164725 0.649891
227 1 0.346296 0.0464556 0.595035
243 1 0.482178 0.234004 0.514123
350 2 0.41153 0.113673 0.506662
274 1 0.4656 0.019023 0.684347
247 1 0.0686978 0.282731 0.735895
127 1 0.178186 0.269786 0.631685
359 2 0.149494 0.363947 0.727725
96 1 0.214356 0.364982 0.525625
200 1 0.0902827 0.379915 0.613791
300 2 0.0626246 0.493285 0.619232
59 1 0.185936 0.4815 0.677435
345 2 0.193076 0.49748 0.521059
218 1 0.321387 0.270742 0.541998
138 1 0.397118 0.28141 0.729392
197 1 0.27948 0.361784 0.673597
69 1 0.410523 0.37156 0.607121
280 1 0.376744 0.483111 0.713819
289 2 0.466415 0.395526 0.730006
165 1 0.311992 0.492674 0.57825
273 1 0.145786 0.107917 0.997228
124 1 0.14569 0.0732586 0.831494
331 2 0.208797 0.164218 0.885834
188 1 0.0855366 0.217609 0.890028
152 1 0.223205 0.248806 0.78671
40 1 0.44276 0.115908 0.784097
295 2 0.341556 0.204899 0.838927
220 1 0.330566 0.119595 0.9294
328 2 0.461224 0.0803352 0.90132
232 1 0.393872 0.243689 0.972976
20 1 0.290626 0.0718451 0.759926
56 1 0.494271 0.222198 0.862351
349 2 0.126649 0.320899 0.967734
259 1 0.0782713 0.478774 0.772203
102 1 0.162869 0.375505 0.842654
252 1 0.1519 0.475168 0.949246
12 1 0.0154537 0.351298 0.881654
162 1 0.256118 0.293904 0.959681
267 1 0.49065 0.475361 0.978118
23 1 0.32139 0.372191 0.827167
257 1 0.356818 0.406647 0.976033
154 1 0.479436 0.379887 0.861524
317 2 0.480398 0.347816 0.996116
48 1 0.159321 0.554298 0.0979969
5 1 0.234019 0.702361 0.0221628
228 1 0.0677461 0.716497 0.0693607
120 1 0.208121 0.697073 0.194479
270 1 0.0475945 0.642058 0.205396
29 1 0.0185518 0.558055 0.0509746
298 2 0.267991 0.539631 0.214284
90 1 0.328613 0.604856 0.114972
334 2 0.319114 0.668706 0.234553
210 1 0.477532 0.680656 0.18295
63 1 0.413678 0.710544 0.035024
185 1 0.387427 0.543737 0.245817
149 1 0.470535 0.545933 0.105456
209 1 0.0666194 0.967335 0.0554593
37 1 0.19705 0.836544 0.0876568
123 1 0.0991661 0.810853 0.226084
4 1 0.0204975 0.966077 0.211205
18 1 0.236804 0.839642 0.245134
38 1 0.180921 0.970344 0.187414
296 2 0.0877085 0.849863 0.00433686
129 1 0.344564 0.769692 0.163831
84 1 0.479091 0.839313 0.178655
261 1 0.348194 0.914442 0.163473
347 2 0.439773 0.835441 0.0386575
249 1 0.403103 0.977939 0.0295746
161 1 0.0316986 0.633902 0.376025
95 1 0.168619 0.572372 0.278031
116 1 0.153381 0.603226 0.452688
333 2 0.426662 0.581999 0.364485
277 1 0.309974 0.573614 0.413473
157 1 0.252524 0.701893 0.357484
279 1 0.423324 0.675948 0.441953
111 1 0.118161 0.773539 0.378106
193 1 0.126489 0.920275 0.325248
171 1 0.0763585 0.873982 0.493272
323 2 0.173165 0.986179 0.453653
170 1 0.236977 0.845715 0.404065
260 1 0.393356 0.845583 0.456334
156 1 0.352962 0.994863 0.455824
54 1 0.405248 0.753683 0.301503
246 1 0.406323 0.922186 0.304631
166 1 0.264182 0.979989 0.323903
237 1 0.12131 0.738781 0.526634
195 1 0.117431 0.614501 0.622009
103 1 0.226261 0.717821 0.644705
75 1 0.0583954 0.749122 0.667496
262 1 0.493712 0.505532 0.585886
336 2 0.264545 0.594796 0.636473
223 1 0.408218 0.628102 0.630276
107 1 0.364566 0.739929 0.735617
15 1 0.271255 0.675043 0.504923
309 2 0.399599 0.554431 0.503076
312 2 0.226845 0.800681 0.524915
22 1 0.0245717 0.955303 0.615282
189 1 0.162743 0.865682 0.649563
315 2 0.474922 0.818009 0.548145
332 2 0.277827 0.831146 0.715218
233 1 0.349942 0.800017 0.595974
241 1 0.344603 0.925358 0.688656
135 1 0.252352 0.930632 0.540259
182 1 0.452401 0.941757 0.561677
130 1 0.154147 0.609801 0.785343
132 1 0.0974903 0.651433 0.92878
293 2 0.211382 0.625648 0.889951
326 2 0.103265 0.728754 0.835532
184 1 0.0102965 0.517973 0.907107
212 1 0.24315 0.50803 0.840321
33 1 0.00470681 0.649389 0.793153
211 1 0.380618 0.541772 0.874609
140 1 0.484637 0.614635 0.771671
65 1 0.274818 0.557176 0.978168
278 1 0.306906 0.696263 0.891241
92 1 0.305261 0.611182 0.758909
288 1 0.457497 0.726446 0.869381
357 2 0.402359 0.573521 0.994189
14 1 0.232119 0.95374 0.962578
142 1 0.0801643 0.93355 0.897914
286 1 0.219767 0.929134 0.791562
324 2 0.233684 0.767007 0.804338
147 1 0.177171 0.807563 0.903673
85 1 0.0187999 0.778083 0.922116
141 1 0.0829665 0.857037 0.780368
104 1 0.476904 0.874178 0.926504
256 1 0.462176 0.861386 0.774234
244 1 0.319652 0.838473 0.995662
9 1 0.318927 0.836462 0.850502
10 1 0.382704 0.971339 0.871269
68 1 0.584523 0.0876394 0.126299
338 2 0.740925 0.115345 0.107969
145 1 0.672002 0.194002 0.0326421
55 1 0.670668 0.196471 0.205361
143 1 0.522139 0.238129 0.103656
39 1 0.730036 0.0345677 0.0192762
17 1 0.796269 0.101135 0.220005
181 1 0.860145 0.142185 0.0653651
117 1 0.928128 0.218601 0.172994
159 1 0.902066 0.00237324 0.115892
139 1 0.62463 0.349718 0.212465
52 1 0.555406 0.40101 0.0823946
87 1 0.71358 0.423067 0.0925504
291 2 0.651772 0.303486 0.0955745
303 2 0.517422 0.282577 0.225539
30 1 0.637862 0.491252 0.190287
64 1 0.780727 0.289334 0.125965
151 1 0.91975 0.380813 0.12334
307 2 0.750028 0.391455 0.215243
269 1 0.905107 0.284723 0.0150766
354 2 0.873501 0.468035 0.202949
339 2 0.512655 0.0230482 0.307391
229 1 0.638951 0.0751214 0.293602
41 1 0.62665 0.204993 0.373225
198 1 0.660717 0.0494025 0.456121
97 1 0.509016 0.159666 0.250109
322 2 0.728786 0.153353 0.312471
215 1 0.502885 0.119653 0.402404
175 1 0.766385 0.194544 0.426663
202 1 0.795514 0.0543531 0.374689
93 1 0.957792 0.0898103 0.268238
167 1 0.834041 0.225879 0.295273
44 1 0.905105 0.151813 0.402337
287 1 0.513714 0.389604 0.478833
89 1 0.658182 0.422148 0.486196
26 1 0.718437 0.317455 0.315902
109 1 0.566523 0.338155 0.348709
150 1 0.65456 0.468424 0.33619
224 1 0.96519 0.277602 0.306554
245 1 0.878049 0.332439 0.42662
251 1 0.854509 0.367432 0.270874
318 2 0.764142 0.4134 0.388615
221 1 0.936568 0.495006 0.422892
81 1 0.670279 0.131432 0.58579
205 1 0.604136 0.141566 0.724182
330 2 0.557255 0.210113 0.621602
358 2 0.5853 0.0128719 0.707134
240 1 0.524416 0.0764812 0.561267
51 1 0.767602 0.0715855 0.684828
106 1 0.807055 0.199278 0.593898
49 1 0.94043 0.102886 0.638351
160 1 0.923677 0.238701 0.716539
58 1 0.84555 0.071531 0.522421
351 2 0.976557 0.127901 0.50762
7 1 0.675998 0.265049 0.656961
283 1 0.543285 0.334686 0.618774
100 1 0.695913 0.43491 0.635349
253 1 0.56101 0.472359 0.713674
281 1 0.651147 0.268671 0.509372
74 1 0.781596 0.345679 0.53757
230 1 0.804331 0.345933 0.689496
53 1 0.900561 0.45637 0.573269
242 1 0.927229 0.306715 0.577783
216 1 0.963713 0.386157 0.713325
335 2 0.544974 0.173173 0.988315
60 1 0.55242 0.0426272 0.978836
115 1 0.710886 0.0568062 0.840824
208 1 0.543917 0.00814065 0.829101
321 2 0.659086 0.0993224 0.95019
24 1 0.641634 0.181564 0.864512
73 1 0.883222 0.103103 0.789778
255 1 0.754615 0.203898 0.756481
282 1 0.853365 0.0404863 0.944357
214 1 0.927327 0.224121 0.875798
3 1 0.789944 0.23106 0.935464
311 2 0.984236 0.18834 0.991651
268 1 0.999179 0.0840526 0.893652
114 1 0.556654 0.299515 0.758661
204 1 0.702945 0.339066 0.803915
203 1 0.730502 0.353957 0.966251
66 1 0.625874 0.442586 0.871758
276 1 0.598368 0.311829 0.945144
314 2 0.770663 0.465913 0.901467
144 1 0.854256 0.351192 0.843724
264 1 0.751543 0.476527 0.773477
47 1 0.902112 0.485993 0.820671
110 1 0.874379 0.426142 0.981409
187 1 0.625503 0.650082 0.173964
301 2 0.71352 0.559217 0.0998657
45 1 0.678072 0.675049 0.0169695
344 2 0.587559 0.525227 0.0638138
27 1 0.771387 0.524661 0.229223
128 1 0.769107 0.677755 0.146113
101 1 0.922862 0.655218 0.133265
57 1 0.844781 0.533551 0.0939987
342 2 0.829126 0.651772 0.0319398
176 1 0.702116 0.987958 0.153597
177 1 0.55198 0.927594 0.0751879
19 1 0.558428 0.758781 0.0371851
46 1 0.633111 0.813071 0.207304
36 1 0.712169 0.818057 0.0801162
207 1 0.577463 0.955322 0.226808
360 2 0.817273 0.890948 0.112239
263 1 0.861915 0.769274 0.0607876
226 1 0.934281 0.847492 0.172575
126 1 0.849511 0.96427 0.246697
67 1 0.958199 0.880448 0.0165374
108 1 0.798845 0.817466 0.211202
348 2 0.596479 0.710342 0.279414
272 1 0.528253 0.545918 0.449163
43 1 0.706298 0.645966 0.32559
217 1 0.588564 0.680813 0.402572
299 2 0.68381 0.565142 0.436458
105 1 0.717858 0.672849 0.492924
174 1 0.533718 0.579542 0.297884
131 1 0.7987 0.542651 0.37953
1 1 0.93282 0.727031 0.267127
290 2 0.828218 0.630434 0.263418
80 1 0.843829 0.723465 0.384086
118 1 0.936779 0.55209 0.268996
352 2 0.91118 0.624685 0.410416
248 1 0.564402 0.815527 0.466008
25 1 0.635993 0.92469 0.395615
343 2 0.705817 0.921438 0.26784
77 1 0.694678 0.790757 0.358207
194 1 0.542064 0.835106 0.318946
79 1 0.502056 0.9732 0.421289
34 1 0.96685 0.752081 0.469107
133 1 0.761006 0.932693 0.485869
308 2 0.899818 0.991046 0.379081
356 2 0.787169 0.821342 0.467754
285 1 0.825258 0.869228 0.356394
163 1 0.979919 0.859638 0.340869
192 1 0.923067 0.907155 0.474945
236 1 0.636891 0.560894 0.571925
320 2 0.64094 0.722872 0.633866
292 2 0.548525 0.600764 0.649518
183 1 0.537113 0.686439 0.556077
113 1 0.516997 0.725009 0.687494
91 1 0.662202 0.606423 0.706613
71 1 0.763268 0.714438 0.650642
88 1 0.807434 0.566167 0.651647
225 1 0.916217 0.691973 0.66168
122 1 0.854654 0.647123 0.53323
199 1 0.957024 0.54198 0.689068
42 1 0.770285 0.512215 0.516559
235 1 0.998352 0.608858 0.525018
158 1 0.675031 0.98203 0.60978
234 1 0.691515 0.821614 0.553977
99 1 0.565845 0.887959 0.662549
76 1 0.649821 0.78629 0.7413
325 2 0.591061 0.924186 0.517356
13 1 0.789785 0.897334 0.658676
148 1 0.852536 0.793079 0.565336
341 2 0.873166 0.940827 0.572188
119 1 0.939917 0.87169 0.688493
355 2 0.992559 0.82442 0.588901
297 2 0.505019 0.5096 0.83632
213 1 0.682033 0.530053 0.975097
254 1 0.617124 0.592494 0.846003
319 2 0.567365 0.714598 0.809121
353 2 0.738531 0.574776 0.852634
70 1 0.734134 0.690339 0.857757
98 1 0.523264 0.629823 0.967974
121 1 0.840867 0.626063 0.788813
137 1 0.842857 0.56697 0.949039
258 1 0.957094 0.658101 0.979067
50 1 0.605753 0.783916 0.906058
146 1 0.655747 0.922901 0.954301
201 1 0.724339 0.847502 0.853793
94 1 0.676871 0.946131 0.750588
346 2 0.601925 0.887001 0.832884
316 2 0.731185 0.777027 0.959119
219 1 0.832405 0.7903 0.768731
196 1 0.929219 0.888575 0.860162
337 2 0.973075 0.97932 0.945078
305 2 0.95963 0.777512 0.778117
2 1 0.797917 0.89622 0.96871
136 1 0.818613 0.965095 0.787461
206 1 0.868845 0.755124 0.914175
ITEM: TIMESTEP
50000
ITEM: NUMBER OF ATOMS
360
ITEM: BOX BOUNDS pp pp pp
0.0000000000000000e+00 6.6943295008216896e+00
0.0000000000000000e+00 6.6943295008216896e+00
0.0000000000000000e+00 6.6943295008216896e+00
ITEM: ATOMS id type xs ys zs
338 2 0.164383 0.191655 0.118662
8 1 0.128089 0.0968614 0.186037
329 2 0.423227 0.410219 0.220579
28 1 0.228159 0.041555 0.0387836
96 1 0.27143 0.177672 0.193647
323 2 0.246809 0.0531672 0.174657
222 1 0.296112 0.224932 0.0435604
276 1 0.378548 0.102819 0.0915197
139 1 0.455488 0.230562 0.0721983
112 1 0.416455 0.206304 0.2304
202 1 0.0264655 0.196744 0.120839
257 1 0.183143 0.333654 0.109114
228 1 0.0382619 0.36917 0.14909
334 2 0.17084 0.419001 0.198615
169 1 0.413111 0.331241 0.482901
83 1 0.137219 0.48804 0.0691981
242 1 0.15914 0.271514 0.233062
251 1 0.271182 0.466964 0.151453
342 2 0.245332 0.410678 0.0328352
31 1 0.407357 0.320273 0.312398
340 2 0.31264 0.278456 0.248969
82 1 0.364 0.327992 0.141854
332 2 0.232572 0.0120254 0.385459
61 1 0.416389 0.47667 0.122394
294 2 0.266508 0.381024 0.426438
201 1 0.498401 0.0157536 0.0218632
186 1 0.243325 0.123427 0.487953
126 1 0.116851 0.0405338 0.45834
218 1 0.200511 0.122343 0.334114
166 1 0.0507847 0.174932 0.290133
265 1 0.110437 0.214836 0.419674
32 1 0.371963 0.0528842 0.234021
135 1 0.361532 0.0454788 0.384647
345 2 0.324817 0.152406 0.301658
16 1 0.416424 0.189718 0.390499
221 1 0.0780393 0.361063 0.30643
168 1 0.274974 0.25474 0.370864
59 1 0.147896 0.37259 0.43546
195 1 0.269785 0.40212 0.29817
153 1 0.368993 0.449171 0.397694
320 2 0.00371314 0.276023 0.227706
117 1 0.0674559 0.0536299 0.0475238
302 2 0.359161 0.485881 0.00810689
162 1 0.262176 0.17982 0.624645
293 2 0.160153 0.485456 0.503346
358 2 0.258586 0.184484 0.759923
309 2 0.171949 0.222466 0.553294
179 1 0.121442 0.081315 0.7579
281 1 0.0775718 0.130614 0.578824
351 2 0.290144 0.0629263 0.582869
94 1 0.396004 0.178661 0.537777
350 2 0.378512 0.13443 0.67563
35 1 0.181665 0.0388508 0.624562
188 1 0.372648 0.252228 0.719546
204 1 0.000195313 0.173261 0.821403
93 1 0.120101 0.230094 0.687802
272 1 0.359134 0.365439 0.983583
216 1 0.104096 0.325644 0.571069
197 1 0.250821 0.332869 0.671622
212 1 0.167894 0.489373 0.641701
289 2 0.104077 0.377349 0.700207
47 1 0.0165071 0.469726 0.713037
283 1 0.490306 0.266025 0.61745
232 1 0.463682 0.0432735 0.604679
127 1 0.296643 0.430672 0.545242
304 2 0.366357 0.286056 0.599277
140 1 0.409516 0.387319 0.669692
86 1 0.0223381 0.0174706 0.906163
48 1 0.392823 0.380412 0.821712
346 2 0.142997 0.0912366 0.899701
190 1 0.162936 0.206946 0.840776
97 1 0.463783 0.268815 0.911184
107 1 0.2654 0.468509 0.924881
327 2 0.393013 0.165841 0.967184
238 1 0.313672 0.261112 0.854106
209 1 0.273192 0.108016 0.908875
173 1 0.279442 0.0623828 0.746036
138 1 0.435205 0.135693 0.839184
200 1 0.277563 0.291836 0.516321
147 1 0.418251 -0.00256097 0.739978
271 1 0.474663 0.456314 0.546864
211 1 0.19267 0.361844 0.816886
252 1 0.088373 0.435666 0.938624
92 1 0.0373409 0.327413 0.816414
280 1 0.208995 0.310535 0.956719
60 1 0.370236 0.0109604 0.947958
42 1 0.0188857 0.465479 0.541727
224 1 0.140915 0.174832 0.98955
295 2 0.00538209 0.439969 0.854714
102 1 0.285114 0.476759 0.773213
352 2 0.00131738 0.227958 0.562159
247 1 0.0556628 0.295184 0.986245
278 1 0.0410338 0.597486 0.0482498
314 2 0.177174 0.586693 0.150787
249 1 0.238995 0.708133 0.181943
87 1 0.082352 0.667043 0.209112
333 2 0.11879 0.769113 0.151056
63 1 0.270254 0.583989 0.0494166
37 1 0.384844 0.625628 0.156631
177 1 0.426544 0.588827 0.0237854
312 2 0.376509 0.729362 0.258032
85 1 0.0508263 0.831886 0.0757532
233 1 0.220142 0.837997 0.0724328
21 1 0.256007 0.963704 0.274504
156 1 0.399638 0.90467 0.25951
84 1 0.137912 0.948324 0.15825
261 1 0.496905 0.951716 0.378538
46 1 0.361082 0.798395 0.156975
357 2 0.268513 0.873272 0.191689
244 1 0.343205 0.943967 0.113269
189 1 0.462819 0.688593 0.473853
234 1 0.415744 0.82105 0.383326
103 1 0.136092 0.705232 0.0329672
116 1 0.0152825 0.629317 0.428908
288 1 0.209227 0.5487 0.266692
360 2 0.00403508 0.90915 0.175975
161 1 0.168938 0.719058 0.348717
90 1 0.240692 0.549826 0.417637
308 2 0.0348952 0.592999 0.301301
129 1 0.284262 0.806385 0.307054
18 1 0.272248 0.686488 0.473114
5 1 0.309702 0.649952 0.326625
335 2 0.324184 0.904414 0.37723
9 1 0.153552 0.83697 0.244569
123 1 0.0854026 0.991359 0.294529
171 1 0.272457 0.83399 0.460827
220 1 0.0330376 0.805404 0.427901
298 2 0.0533593 0.717172 0.329222
4 1 0.159193 0.891052 0.387026
250 1 0.374307 0.519526 0.262883
65 1 0.475619 0.692892 0.32987
262 1 0.488489 0.54419 0.393446
193 1 0.372403 0.572291 0.491909
291 2 0.497303 0.992325 0.243712
104 1 0.338449 0.725425 0.0272597
115 1 0.42948 0.869766 0.0164863
118 1 0.103298 0.5179 0.396803
132 1 0.00451869 0.798999 0.246745
120 1 0.0664611 0.502365 0.220721
259 1 0.122851 0.600632 0.534231
14 1 0.100003 0.621999 0.680647
286 1 0.152234 0.762787 0.728858
324 2 0.321413 0.972411 0.831554
305 2 0.0225778 0.714421 0.542012
237 1 0.257301 0.643547 0.623037
315 2 0.376956 0.656842 0.574356
185 1 0.373809 0.527728 0.643083
165 1 0.489623 0.628865 0.629407
155 1 0.42576 0.896452 0.86365
336 2 0.393365 0.517425 0.832983
207 1 0.317164 0.744778 0.852927
296 2 0.0757678 0.830631 0.639506
227 1 0.173109 0.894167 0.670707
163 1 0.0885622 0.916064 0.536696
341 2 0.383751 0.77435 0.511761
328 2 0.27029 0.724637 0.725275
40 1 0.310283 0.803487 0.626878
356 2 0.438307 0.908252 0.624352
136 1 0.414375 0.788091 0.744729
273 1 0.279962 0.873118 0.766945
113 1 0.398432 0.935375 0.507957
122 1 0.488036 0.79554 0.573985
54 1 0.158421 0.75408 0.556973
313 2 0.0860611 0.793765 0.950737
181 1 0.153096 0.577702 0.935729
191 1 0.0881641 0.664996 0.830577
36 1 0.124498 0.923512 0.9943
279 1 0.239824 0.613198 0.794981
130 1 0.28365 0.886029 0.936713
182 1 0.313379 0.951021 0.635209
99 1 0.384161 0.637318 0.754355
105 1 0.463897 0.747373 0.92547
223 1 0.334129 0.607586 0.912559
38 1 0.174053 0.968815 0.856587
348 2 0.239624 0.731414 0.949511
239 1 0.179966 0.816869 0.875805
180 1 0.0471488 0.890074 0.776917
331 2 0.0639694 0.973199 0.666044
75 1 0.00263883 0.744864 0.670128
72 1 0.243512 0.966431 0.499932
12 1 0.123315 0.52085 0.80029
50 1 0.484217 0.506332 0.739206
152 1 0.481853 0.504407 0.905874
167 1 0.637376 0.239018 0.0704644
68 1 0.672505 0.0773627 0.0864678
146 1 0.640117 0.172437 0.220353
198 1 0.531674 0.387721 0.389115
108 1 0.521133 0.108736 0.147688
215 1 0.551953 0.246023 0.481492
17 1 0.774528 0.178725 0.154927
299 2 0.896918 0.206159 0.103126
176 1 0.842298 0.0477757 0.142318
131 1 0.844709 0.296244 0.20746
322 2 0.604492 0.0452553 0.373275
178 1 0.901091 0.158642 0.240181
81 1 0.817426 0.29476 0.476701
11 1 0.639731 0.394552 0.0900803
297 2 0.633496 0.48316 0.179082
267 1 0.528114 0.454912 0.245353
55 1 0.699193 0.311595 0.192511
125 1 0.521865 0.307213 0.182914
210 1 0.683651 0.449098 0.291039
231 1 0.554183 0.248056 0.326058
245 1 0.930509 0.427357 0.236594
44 1 0.795746 0.415169 0.121741
110 1 0.92391 0.321549 0.0697547
143 1 0.502722 0.107558 0.299627
95 1 0.976652 0.310673 0.482289
194 1 0.52034 0.0859603 0.462821
13 1 0.754256 0.0629035 0.273088
275 1 0.668605 0.339086 0.414788
270 1 0.95899 0.468362 0.049158
183 1 0.664924 0.15526 0.394582
67 1 0.986728 0.0401416 0.182033
230 1 0.836012 0.382681 0.353381
133 1 0.848949 0.1468 0.399328
355 2 0.897175 0.0506005 0.461433
192 1 0.987252 0.130513 0.46799
235 1 0.941702 0.262526 0.352038
6 1 0.947312 0.054389 0.330198
303 2 0.602905 0.349218 0.258991
253 1 0.62447 0.482395 0.471026
172 1 0.749562 0.230233 0.312111
229 1 0.973608 0.427083 0.394077
282 1 0.773107 0.28915 0.013729
78 1 0.930616 0.0946951 0.0252929
25 1 0.617613 0.0227173 0.227935
23 1 0.51176 0.379378 0.00728308
159 1 0.796453 0.127423 0.000919051
359 2 0.983886 0.162492 0.673867
160 1 0.740016 0.142222 0.649605
274 1 0.614695 0.0772801 0.58581
241 1 0.686154 0.222899 0.540848
339 2 0.63102 0.190217 0.711423
73 1 0.630538 0.0682852 0.752332
100 1 0.604261 0.476529 0.617416
22 1 0.81649 0.0037015 0.686901
7 1 0.885974 0.184121 0.576551
79 1 0.790927 0.0675624 0.53558
58 1 0.968695 0.0165655 0.575378
264 1 0.967759 0.0325913 0.737623
74 1 0.98232 0.303476 0.673754
114 1 0.621587 0.320128 0.65854
292 2 0.540147 0.400281 0.6978
56 1 0.732998 0.443878 0.694467
255 1 0.512011 0.313404 0.774927
145 1 0.517789 0.0261827 0.874153
240 1 0.887652 0.387917 0.586956
144 1 0.792907 0.280784 0.653046
300 2 0.874483 0.404295 0.72822
30 1 0.627284 0.461746 0.942967
325 2 0.581949 0.363377 0.514663
49 1 0.513776 0.139915 0.696105
10 1 0.57794 0.177461 0.839617
3 1 0.775192 0.184223 0.865297
2 1 0.675807 0.0637093 0.894959
39 1 0.560292 0.134836 0.987157
330 2 0.773447 0.0926833 0.788284
106 1 0.864026 0.168375 0.735573
124 1 0.872397 0.0678373 0.862313
214 1 0.904898 0.222752 0.946161
151 1 0.758326 0.37698 0.871544
24 1 0.68469 0.278935 0.782037
98 1 0.614153 0.427369 0.792267
27 1 0.622067 0.300743 0.936481
306 2 0.681298 0.172807 0.949609
137 1 0.919835 0.367817 0.922133
203 1 0.874843 0.296659 0.79307
317 2 0.537065 0.390077 0.877654
88 1 0.82034 0.49684 0.975105
266 1 0.88075 0.48914 0.814641
243 1 0.707991 0.390924 0.545908
354 2 0.725809 0.408696 0.995585
57 1 0.707265 0.528439 0.0787729
254 1 0.648471 0.661408 0.113235
187 1 0.556034 0.514474 0.0925098
15 1 0.531807 0.82103 0.278484
80 1 0.816825 0.985931 0.387182
52 1 0.951619 0.693314 0.117623
43 1 0.797927 0.667613 0.194602
269 1 0.84877 0.557791 0.112677
213 1 0.791868 0.688221 0.03991
148 1 0.683647 1.00167 0.468453
311 2 0.862626 0.77258 0.270904
236 1 0.645423 0.824616 0.174287
307 2 0.947205 0.53318 0.177919
101 1 0.747968 0.942981 0.166702
226 1 0.924016 0.648372 0.291721
337 2 0.612097 0.959918 0.118561
66 1 0.745612 0.838821 0.056359
326 2 0.891967 0.822139 0.0321405
142 1 0.938674 0.939212 0.0692621
134 1 0.893615 0.936052 0.237917
141 1 0.858798 0.808004 0.154131
149 1 0.536061 0.607286 0.223268
89 1 0.71945 0.728546 0.492097
287 1 0.631249 0.713593 0.270583
41 1 0.604209 0.640201 0.393206
301 2 0.604979 0.529206 0.330311
109 1 0.771456 0.851732 0.295503
170 1 0.879547 0.502726 0.477718
26 1 0.734101 0.581157 0.419424
205 1 0.783857 0.704448 0.353527
128 1 0.881623 0.655739 0.460268
64 1 0.817834 0.513966 0.288761
45 1 0.517756 0.74624 0.153895
290 2 0.986357 0.907992 0.308872
318 2 0.681483 0.785007 0.362177
29 1 0.678268 0.582913 0.242627
174 1 0.574917 0.815282 0.439694
77 1 0.633776 0.921832 0.335087
111 1 0.887451 0.824182 0.40371
246 1 0.982665 0.951919 0.443249
164 1 0.75187 0.86601 0.458445
256 1 0.577177 0.806513 0.0199372
248 1 0.509502 0.915996 0.145614
150 1 0.704987 0.653026 0.72296
353 2 0.616415 0.548325 0.740296
277 1 0.627434 0.649682 0.5813
285 1 0.549576 0.730035 0.702662
175 1 0.732975 0.552436 0.581727
343 2 0.524967 0.903039 0.935141
51 1 0.889854 0.888769 0.81506
316 2 0.813229 0.597973 0.756238
217 1 0.827698 0.674733 0.611501
225 1 0.860644 0.522402 0.655136
71 1 0.633603 0.808867 0.588785
158 1 0.699899 0.938812 0.623243
206 1 0.692581 0.808254 0.745278
208 1 0.538082 0.916284 0.7048
319 2 0.518703 0.579638 0.519348
34 1 0.945415 0.887791 0.664366
157 1 0.784837 0.817736 0.614353
1 1 0.857744 0.928333 0.541208
310 2 0.814199 0.876395 0.716583
91 1 0.642636 0.708482 0.859278
69 1 0.718876 0.61162 0.944458
344 2 0.679344 0.743878 0.974172
19 1 0.524037 0.630171 0.826708
154 1 0.564086 0.646898 0.982658
76 1 0.725764 0.526369 0.820753
260 1 0.556309 0.937534 0.541721
321 2 0.760253 0.725276 0.835737
199 1 0.955392 0.614957 0.745431
184 1 0.860659 0.654726 0.88393
70 1 0.834724 0.801366 0.926626
33 1 0.984753 0.855915 0.929546
268 1 0.742569 0.961813 0.800583
284 1 0.963328 0.595649 0.584274
258 1 0.562751 0.826164 0.834455
263 1 0.69703 0.853493 0.900605
347 2 0.613641 0.945166 0.802936
219 1 0.789721 0.955693 0.9748
121 1 0.97096 0.716211 0.978631
119 1 0.83762 0.734761 0.740658
53 1 0.995514 0.572601 0.889979
62 1 0.926014 0.790307 0.547598
20 1 0.96809 0.756265 0.822244
196 1 0.632321 0.952537 0.997926
349 2 0.910498 0.603588 0.985861
ITEM: TIMESTEP
100000
ITEM: NUMBER OF ATOMS
360
ITEM: BOX BOUNDS pp pp pp
0.0000000000000000e+00 6.6943295008216896e+00
0.0000000000000000e+00 6.6943295008216896e+00
0.0000000000000000e+00 6.6943295008216896e+00
ITEM: ATOMS id type xs ys zs
32 1 0.141021 0.15726 0.226837
337 2 0.466586 0.0755193 0.481701
40 1 0.1388 0.174605 0.0493852
13 1 0.028487 0.0888583 0.153815
153 1 0.469812 0.315907 0.158865
283 1 0.438468 0.123069 0.157819
130 1 0.262037 0.0722194 0.085149
36 1 0.312389 0.235471 0.133508
110 1 0.0712223 0.49002 0.0200543
74 1 0.399001 0.24751 0.284615
135 1 0.363107 0.389751 0.341246
87 1 0.150554 0.431457 0.138627
214 1 0.152397 0.290855 0.174537
178 1 0.0550809 0.370605 0.259768
247 1 0.225732 0.321838 0.0489064
95 1 0.131716 0.372826 0.395273
338 2 0.262966 0.197184 0.0297691
335 2 0.477117 0.146863 0.274697
345 2 0.358732 0.392604 0.0363928
63 1 0.424051 0.47426 0.129454
245 1 0.30016 0.372536 0.203313
97 1 0.373839 0.473897 0.4841
123 1 0.0391636 0.0611987 0.30931
4 1 0.0501271 0.222146 0.337583
67 1 0.183322 0.118971 0.365086
61 1 0.472987 0.228826 0.0338875
288 1 0.244575 0.278401 0.316484
233 1 0.30001 0.114808 0.249273
232 1 0.347716 0.0277212 0.478089
270 1 0.0217158 0.345034 0.0904207
49 1 0.450379 0.246233 0.434214
94 1 0.308371 0.18989 0.422028
79 1 0.416545 0.0781127 0.35244
195 1 0.271901 0.338149 0.449944
169 1 0.240732 0.48491 0.343252
329 2 0.193934 0.388674 0.24915
93 1 0.15364 0.231152 0.450894
235 1 0.0678084 0.113463 0.45821
353 2 0.201236 0.444836 0.0108695
8 1 0.270285 0.00192632 0.345652
242 1 0.0115524 0.45456 0.4582
292 2 0.13649 0.491522 0.425433
68 1 0.472048 0.0243802 0.042182
136 1 0.49961 0.390206 0.0302011
215 1 0.500752 0.400453 0.414201
33 1 0.153381 0.010366 0.203992
301 2 0.324326 0.501533 0.216012
238 1 0.114229 0.194801 0.591365
35 1 0.15869 0.0662614 0.672639
360 2 0.105063 0.0516876 0.553283
72 1 0.222867 0.0848336 0.521596
107 1 0.245241 0.195182 0.663009
145 1 0.364432 0.170734 0.558543
332 2 0.375136 0.327914 0.698571
326 2 0.255006 0.247691 0.545623
10 1 0.39333 0.19022 0.702073
266 1 0.470934 0.354638 0.885539
211 1 0.390456 0.476345 0.940172
351 2 0.285175 0.411212 0.55767
204 1 0.0285117 0.246795 0.976221
280 1 0.0583263 0.315684 0.67885
306 2 -0.00482709 0.377755 0.975797
290 2 0.0432977 0.410046 0.572383
182 1 0.469048 0.0408245 0.616937
52 1 0.0255276 0.334763 0.830197
50 1 0.44871 0.442816 0.639313
59 1 0.254577 0.348794 0.653853
198 1 0.378526 0.325488 0.560098
256 1 0.328603 0.268882 0.950335
254 1 0.385691 0.429099 0.778594
222 1 0.110692 0.190352 0.742392
34 1 0.121878 0.067055 0.833315
340 2 0.22089 0.12789 0.782712
190 1 0.184788 0.201952 0.885578
228 1 0.237354 0.0701578 0.931855
208 1 0.317831 0.046432 0.649484
273 1 0.451754 0.212375 0.857654
147 1 0.277576 0.00920862 0.79847
12 1 0.138697 0.462208 0.660967
303 2 0.34122 0.117906 0.839162
209 1 0.321232 0.274754 0.80095
98 1 0.447309 0.0591193 0.870106
278 1 0.134126 0.454356 0.811057
302 2 0.265626 0.425365 0.762761
104 1 0.372115 0.125633 0.987042
90 1 0.153239 0.36413 0.542073
162 1 0.118411 0.351251 0.938589
83 1 0.186442 0.320239 0.776259
30 1 0.26836 0.399083 0.904417
323 2 0.423188 0.0395981 0.744983
216 1 0.0192333 0.276596 0.495625
78 1 0.0341877 0.0927503 0.966188
224 1 0.00143502 0.182202 0.840166
202 1 0.164797 0.69163 0.191234
239 1 0.0833164 0.571794 0.166957
38 1 0.154097 0.683271 0.0191579
109 1 0.0275463 0.715486 0.114312
267 1 0.402393 0.550314 0.334121
312 2 0.163533 0.557224 0.0712384
9 1 0.305063 0.648297 0.0266602
251 1 0.479844 0.775271 0.036838
5 1 0.346655 0.633559 0.169309
330 2 0.494532 0.7183 0.18487
131 1 0.489284 0.57707 0.216098
262 1 0.455129 0.621924 0.0662963
274 1 0.48648 0.945293 0.50264
60 1 0.216092 0.850648 0.127508
141 1 0.0876328 0.828664 0.21749
322 2 0.0123018 0.947067 0.193705
319 2 0.24933 0.737096 0.104577
84 1 0.145319 0.992088 0.0493447
264 1 0.0804989 0.845564 0.0401357
85 1 0.231113 0.880591 0.262175
113 1 0.354444 0.78309 0.165535
249 1 0.354358 0.945541 0.0822438
194 1 0.405582 0.814259 0.444832
314 2 0.275419 0.973482 0.181634
29 1 0.0564499 0.663824 0.312732
221 1 0.0956427 0.50521 0.300522
120 1 0.2414 0.641014 0.338759
212 1 0.131997 0.625307 0.436971
161 1 0.215661 0.54647 0.215748
132 1 0.375932 0.844014 0.303928
334 2 0.258875 0.752241 0.256641
259 1 0.481468 0.86378 0.196817
193 1 0.404572 0.6918 0.295824
341 2 0.326684 0.735932 0.392579
298 2 0.390546 0.9522 0.384473
16 1 0.390381 0.987677 0.220697
115 1 0.278767 0.881614 0.418805
185 1 0.0103452 0.779597 0.414602
118 1 0.157971 0.764266 0.353697
176 1 0.097671 0.922554 0.327243
309 2 0.168388 0.983045 0.447632
357 2 0.239761 0.920004 0.00392905
358 2 0.0257534 0.569043 0.401732
186 1 0.0380251 0.978298 0.458609
244 1 0.339328 0.617507 0.459674
177 1 0.287268 0.499472 0.0692067
321 2 0.488114 0.906072 0.0784662
140 1 0.487 0.665038 0.439884
246 1 0.134025 0.856012 0.478016
18 1 0.223015 0.740525 0.489564
100 1 0.134269 0.648679 0.617415
191 1 0.0242419 0.541382 0.71777
296 2 0.0827191 0.659307 0.727031
308 2 0.0905054 0.718773 0.526313
102 1 0.0417962 0.54669 0.570451
315 2 0.192129 0.556333 0.753288
272 1 0.292452 0.50406 0.654929
22 1 0.0219654 0.915549 0.83581
165 1 0.290907 0.6541 0.609915
316 2 0.384101 0.550388 0.591709
143 1 0.450407 0.682894 0.600734
285 1 0.412191 0.772288 0.867853
127 1 0.216644 0.506742 0.522693
14 1 0.157768 0.796666 0.629596
126 1 0.0464021 0.947081 0.614998
188 1 0.197474 0.949138 0.582494
180 1 0.293051 0.900713 0.696487
171 1 0.323171 0.834581 0.558907
237 1 0.440416 0.88527 0.653187
289 2 0.36554 0.948304 0.576057
227 1 0.337636 0.96454 0.923451
157 1 0.0075535 0.776486 0.91533
122 1 0.368974 0.759145 0.720067
181 1 0.200086 0.5529 0.951211
99 1 0.22254 0.687839 0.738394
279 1 0.113033 0.613705 0.838563
155 1 0.176705 0.936585 0.901224
252 1 0.0216688 0.630115 0.966166
206 1 0.419763 0.61956 0.902486
76 1 0.404418 0.587866 0.722042
46 1 0.234046 0.690309 0.886587
295 2 0.344735 0.663007 0.801604