ITEM: TIMESTEP
0
ITEM: NUMBER OF ATOMS
360
ITEM: BOX BOUNDS pp pp pp
0.0000000000000000e+00 6.6943295008216896e+00
0.0000000000000000e+00 6.6943295008216896e+00
0.0000000000000000e+00 6.6943295008216896e+00
ITEM: ATOMS id type xs ys zs
1 1 0 0 0
2 1 0.111572 0.111572 0
3 1 0.111572 0 0.111572
4 1 0 0.111572 0.111572
5 1 0.223144 0 0
8 1 0.223144 0.111572 0.111572
11 1 0 0.223144 0
13 1 0.111572 0.223144 0.111572
15 1 0.223144 0.223144 0
26 1 0 0 0.223144
27 1 0.111572 0.111572 0.223144
30 1 0.223144 0 0.223144
36 1 0 0.223144 0.223144
40 1 0.223144 0.223144 0.223144
6 1 0.334716 0.111572 0
7 1 0.334716 0 0.111572
9 1 0.446289 0 0
10 1 0.446289 0.111572 0.111572
17 1 0.334716 0.223144 0.111572
19 1 0.446289 0.223144 0
31 1 0.334716 0.111572 0.223144
34 1 0.446289 0 0.223144
44 1 0.446289 0.223144 0.223144
12 1 0.111572 0.334716 0
14 1 0 0.334716 0.111572
18 1 0.223144 0.334716 0.111572
21 1 0 0.446289 0
22 1 0.111572 0.446289 0.111572
23 1 0.223144 0.446289 0
37 1 0.111572 0.334716 0.223144
46 1 0 0.446289 0.223144
48 1 0.223144 0.446289 0.223144
16 1 0.334716 0.334716 0
20 1 0.446289 0.334716 0.111572
24 1 0.334716 0.446289 0.111572
25 1 0.446289 0.446289 0
41 1 0.334716 0.334716 0.223144
50 1 0.446289 0.446289 0.223144
28 1 0.111572 0 0.334716
29 1 0 0.111572 0.334716
33 1 0.223144 0.111572 0.334716
38 1 0.111572 0.223144 0.334716
51 1 0 0 0.446289
52 1 0.111572 0.111572 0.446289
53 1 0.223144 0 0.446289
56 1 0 0.223144 0.446289
58 1 0.223144 0.223144 0.446289
32 1 0.334716 0 0.334716
35 1 0.446289 0.111572 0.334716
42 1 0.334716 0.223144 0.334716
54 1 0.334716 0.111572 0.446289
55 1 0.446289 0 0.446289
60 1 0.446289 0.223144 0.446289
39 1 0 0.334716 0.334716
43 1 0.223144 0.334716 0.334716
47 1 0.111572 0.446289 0.334716
57 1 0.111572 0.334716 0.446289
61 1 0 0.446289 0.446289
62 1 0.223144 0.446289 0.446289
45 1 0.446289 0.334716 0.334716
49 1 0.334716 0.446289 0.334716
59 1 0.334716 0.334716 0.446289
63 1 0.446289 0.446289 0.446289
64 1 0.111572 0 0.557861
65 1 0 0.111572 0.557861
67 1 0.223144 0.111572 0.557861
69 1 0.111572 0.223144 0.557861
76 1 0 0 0.669433
77 1 0.111572 0.111572 0.669433
80 1 0.223144 0 0.669433
86 1 0 0.223144 0.669433
90 1 0.223144 0.223144 0.669433
66 1 0.334716 0 0.557861
68 1 0.446289 0.111572 0.557861
71 1 0.334716 0.223144 0.557861
81 1 0.334716 0.111572 0.669433
84 1 0.446289 0 0.669433
94 1 0.446289 0.223144 0.669433
70 1 0 0.334716 0.557861
72 1 0.223144 0.334716 0.557861
74 1 0.111572 0.446289 0.557861
87 1 0.111572 0.334716 0.669433
96 1 0 0.446289 0.669433
98 1 0.223144 0.446289 0.669433
73 1 0.446289 0.334716 0.557861
75 1 0.334716 0.446289 0.557861
91 1 0.334716 0.334716 0.669433
100 1 0.446289 0.446289 0.669433
78 1 0.111572 0 0.781005
79 1 0 0.111572 0.781005
83 1 0.223144 0.111572 0.781005
88 1 0.111572 0.223144 0.781005
101 1 0 0 0.892577
102 1 0.111572 0.111572 0.892577
103 1 0.223144 0 0.892577
106 1 0 0.223144 0.892577
108 1 0.223144 0.223144 0.892577
82 1 0.334716 0 0.781005
85 1 0.446289 0.111572 0.781005
92 1 0.334716 0.223144 0.781005
104 1 0.334716 0.111572 0.892577
105 1 0.446289 0 0.892577
110 1 0.446289 0.223144 0.892577
89 1 0 0.334716 0.781005
93 1 0.223144 0.334716 0.781005
97 1 0.111572 0.446289 0.781005
107 1 0.111572 0.334716 0.892577
111 1 0 0.446289 0.892577
112 1 0.223144 0.446289 0.892577
95 1 0.446289 0.334716 0.781005
99 1 0.334716 0.446289 0.781005
109 1 0.334716 0.334716 0.892577
113 1 0.446289 0.446289 0.892577
114 1 0.111572 0.557861 0
115 1 0 0.557861 0.111572
117 1 0.223144 0.557861 0.111572
119 1 0 0.669433 0
121 1 0.111572 0.669433 0.111572
123 1 0.223144 0.669433 0
134 1 0.111572 0.557861 0.223144
139 1 0 0.669433 0.223144
143 1 0.223144 0.669433 0.223144
116 1 0.334716 0.557861 0
118 1 0.446289 0.557861 0.111572
125 1 0.334716 0.669433 0.111572
127 1 0.446289 0.669433 0
136 1 0.334716 0.557861 0.223144
147 1 0.446289 0.669433 0.223144
120 1 0.111572 0.781005 0
122 1 0 0.781005 0.111572
126 1 0.223144 0.781005 0.111572
129 1 0 0.892577 0
130 1 0.111572 0.892577 0.111572
131 1 0.223144 0.892577 0
140 1 0.111572 0.781005 0.223144
149 1 0 0.892577 0.223144
151 1 0.223144 0.892577 0.223144
124 1 0.334716 0.781005 0
128 1 0.446289 0.781005 0.111572
132 1 0.334716 0.892577 0.111572
133 1 0.446289 0.892577 0
144 1 0.334716 0.781005 0.223144
153 1 0.446289 0.892577 0.223144
135 1 0 0.557861 0.334716
137 1 0.223144 0.557861 0.334716
141 1 0.111572 0.669433 0.334716
154 1 0.111572 0.557861 0.446289
156 1 0 0.669433 0.446289
158 1 0.223144 0.669433 0.446289
138 1 0.446289 0.557861 0.334716
145 1 0.334716 0.669433 0.334716
155 1 0.334716 0.557861 0.446289
160 1 0.446289 0.669433 0.446289
142 1 0 0.781005 0.334716
146 1 0.223144 0.781005 0.334716
150 1 0.111572 0.892577 0.334716
157 1 0.111572 0.781005 0.446289
161 1 0 0.892577 0.446289
162 1 0.223144 0.892577 0.446289
148 1 0.446289 0.781005 0.334716
152 1 0.334716 0.892577 0.334716
159 1 0.334716 0.781005 0.446289
163 1 0.446289 0.892577 0.446289
164 1 0 0.557861 0.557861
165 1 0.223144 0.557861 0.557861
167 1 0.111572 0.669433 0.557861
174 1 0.111572 0.557861 0.669433
179 1 0 0.669433 0.669433
183 1 0.223144 0.669433 0.669433
166 1 0.446289 0.557861 0.557861
169 1 0.334716 0.669433 0.557861
176 1 0.334716 0.557861 0.669433
187 1 0.446289 0.669433 0.669433
168 1 0 0.781005 0.557861
170 1 0.223144 0.781005 0.557861
172 1 0.111572 0.892577 0.557861
180 1 0.111572 0.781005 0.669433
189 1 0 0.892577 0.669433
191 1 0.223144 0.892577 0.669433
171 1 0.446289 0.781005 0.557861
173 1 0.334716 0.892577 0.557861
184 1 0.334716 0.781005 0.669433
193 1 0.446289 0.892577 0.669433
175 1 0 0.557861 0.781005
177 1 0.223144 0.557861 0.781005
181 1 0.111572 0.669433 0.781005
194 1 0.111572 0.557861 0.892577
196 1 0 0.669433 0.892577
198 1 0.223144 0.669433 0.892577
178 1 0.446289 0.557861 0.781005
185 1 0.334716 0.669433 0.781005
195 1 0.334716 0.557861 0.892577
200 1 0.446289 0.669433 0.892577
182 1 0 0.781005 0.781005
186 1 0.223144 0.781005 0.781005
190 1 0.111572 0.892577 0.781005
197 1 0.111572 0.781005 0.892577
201 1 0 0.892577 0.892577
202 1 0.223144 0.892577 0.892577
188 1 0.446289 0.781005 0.781005
192 1 0.334716 0.892577 0.781005
199 1 0.334716 0.781005 0.892577
203 1 0.446289 0.892577 0.892577
204 1 0.557861 0.111572 0
205 1 0.557861 0 0.111572
206 1 0.669433 0 0
209 1 0.669433 0.111572 0.111572
213 1 0.557861 0.223144 0.111572
214 1 0.669433 0.223144 0
224 1 0.557861 0.111572 0.223144
226 1 0.669433 0 0.223144
234 1 0.669433 0.223144 0.223144
207 1 0.781005 0.111572 0
208 1 0.781005 0 0.111572
210 1 0.892577 0 0
211 1 0.892577 0.111572 0.111572
216 1 0.781005 0.223144 0.111572
218 1 0.892577 0.223144 0
227 1 0.781005 0.111572 0.223144
230 1 0.892577 0 0.223144
238 1 0.892577 0.223144 0.223144
212 1 0.557861 0.334716 0
217 1 0.669433 0.334716 0.111572
220 1 0.557861 0.446289 0.111572
221 1 0.669433 0.446289 0
232 1 0.557861 0.334716 0.223144
241 1 0.669433 0.446289 0.223144
215 1 0.781005 0.334716 0
219 1 0.892577 0.334716 0.111572
222 1 0.781005 0.446289 0.111572
223 1 0.892577 0.446289 0
235 1 0.781005 0.334716 0.223144
243 1 0.892577 0.446289 0.223144
225 1 0.557861 0 0.334716
229 1 0.669433 0.111572 0.334716
233 1 0.557861 0.223144 0.334716
244 1 0.557861 0.111572 0.446289
245 1 0.669433 0 0.446289
249 1 0.669433 0.223144 0.446289
228 1 0.781005 0 0.334716
231 1 0.892577 0.111572 0.334716
236 1 0.781005 0.223144 0.334716
246 1 0.781005 0.111572 0.446289
247 1 0.892577 0 0.446289
251 1 0.892577 0.223144 0.446289
237 1 0.669433 0.334716 0.334716
240 1 0.557861 0.446289 0.334716
248 1 0.557861 0.334716 0.446289
252 1 0.669433 0.446289 0.446289
239 1 0.892577 0.334716 0.334716
242 1 0.781005 0.446289 0.334716
250 1 0.781005 0.334716 0.446289
253 1 0.892577 0.446289 0.446289
254 1 0.557861 0 0.557861
256 1 0.669433 0.111572 0.557861
258 1 0.557861 0.223144 0.557861
264 1 0.557861 0.111572 0.669433
266 1 0.669433 0 0.669433
274 1 0.669433 0.223144 0.669433
255 1 0.781005 0 0.557861
257 1 0.892577 0.111572 0.557861
259 1 0.781005 0.223144 0.557861
267 1 0.781005 0.111572 0.669433
270 1 0.892577 0 0.669433
278 1 0.892577 0.223144 0.669433
260 1 0.669433 0.334716 0.557861
262 1 0.557861 0.446289 0.557861
272 1 0.557861 0.334716 0.669433
281 1 0.669433 0.446289 0.669433
261 1 0.892577 0.334716 0.557861
263 1 0.781005 0.446289 0.557861
275 1 0.781005 0.334716 0.669433
283 1 0.892577 0.446289 0.669433
265 1 0.557861 0 0.781005
269 1 0.669433 0.111572 0.781005
273 1 0.557861 0.223144 0.781005
284 1 0.557861 0.111572 0.892577
285 1 0.669433 0 0.892577
289 2 0.669433 0.223144 0.892577
268 1 0.781005 0 0.781005
271 1 0.892577 0.111572 0.781005
276 1 0.781005 0.223144 0.781005
286 1 0.781005 0.111572 0.892577
287 1 0.892577 0 0.892577
291 2 0.892577 0.223144 0.892577
277 1 0.669433 0.334716 0.781005
280 1 0.557861 0.446289 0.781005
288 1 0.557861 0.334716 0.892577
292 2 0.669433 0.446289 0.892577
279 1 0.892577 0.334716 0.781005
282 1 0.781005 0.446289 0.781005
290 2 0.781005 0.334716 0.892577
293 2 0.892577 0.446289 0.892577
294 2 0.557861 0.557861 0
296 2 0.669433 0.557861 0.111572
299 2 0.557861 0.669433 0.111572
300 2 0.669433 0.669433 0
310 2 0.557861 0.557861 0.223144
316 2 0.669433 0.669433 0.223144
295 2 0.781005 0.557861 0
297 2 0.892577 0.557861 0.111572
302 2 0.781005 0.669433 0.111572
304 2 0.892577 0.669433 0
311 2 0.781005 0.557861 0.223144
320 2 0.892577 0.669433 0.223144
298 2 0.557861 0.781005 0
303 2 0.669433 0.781005 0.111572
306 2 0.557861 0.892577 0.111572
307 2 0.669433 0.892577 0
314 2 0.557861 0.781005 0.223144
323 2 0.669433 0.892577 0.223144
301 2 0.781005 0.781005 0
305 2 0.892577 0.781005 0.111572
308 2 0.781005 0.892577 0.111572
309 2 0.892577 0.892577 0
317 2 0.781005 0.781005 0.223144
325 2 0.892577 0.892577 0.223144
312 2 0.669433 0.557861 0.334716
315 2 0.557861 0.669433 0.334716
326 2 0.557861 0.557861 0.446289
329 2 0.669433 0.669433 0.446289
313 2 0.892577 0.557861 0.334716
318 2 0.781005 0.669433 0.334716
327 2 0.781005 0.557861 0.446289
331 2 0.892577 0.669433 0.446289
319 2 0.669433 0.781005 0.334716
322 2 0.557861 0.892577 0.334716
328 2 0.557861 0.781005 0.446289
332 2 0.669433 0.892577 0.446289
321 2 0.892577 0.781005 0.334716
324 2 0.781005 0.892577 0.334716
330 2 0.781005 0.781005 0.446289
333 2 0.892577 0.892577 0.446289
334 2 0.669433 0.557861 0.557861
336 2 0.557861 0.669433 0.557861
342 2 0.557861 0.557861 0.669433
348 2 0.669433 0.669433 0.669433
335 2 0.892577 0.557861 0.557861
337 2 0.781005 0.669433 0.557861
343 2 0.781005 0.557861 0.669433
352 2 0.892577 0.669433 0.669433
338 2 0.669433 0.781005 0.557861
340 2 0.557861 0.892577 0.557861
346 2 0.557861 0.781005 0.669433
355 2 0.669433 0.892577 0.669433
339 2 0.892577 0.781005 0.557861
341 2 0.781005 0.892577 0.557861
349 2 0.781005 0.781005 0.669433
357 2 0.892577 0.892577 0.669433
344 2 0.669433 0.557861 0.781005
347 2 0.557861 0.669433 0.781005
358 2 0.557861 0.557861 0.892577
345 2 0.892577 0.557861 0.781005
350 2 0.781005 0.669433 0.781005
359 2 0.781005 0.557861 0.892577
351 2 0.669433 0.781005 0.781005
354 2 0.557861 0.892577 0.781005
360 2 0.557861 0.781005 0.892577
353 2 0.892577 0.781005 0.781005
356 2 0.781005 0.892577 0.781005
ITEM: TIMESTEP
10000
ITEM: NUMBER OF ATOMS
360
ITEM: BOX BOUNDS pp pp pp
0.0000000000000000e+00 6.6943295008216896e+00
0.0000000000000000e+00 6.6943295008216896e+00
0.0000000000000000e+00 6.6943295008216896e+00
ITEM: ATOMS id type xs ys zs
179 1 0.063636 0.0210142 0.0774593
188 1 0.188009 0.0553593 0.0519006
234 1 0.0742555 0.112211 0.176083
178 1 0.21297 0.174411 0.142116
32 1 0.195759 0.0415538 0.189075
254 1 0.160916 0.213303 0.00300824
145 1 0.33391 0.178992 0.0224621
59 1 0.498673 0.198596 0.0288927
169 1 0.40275 0.185055 0.14803
212 1 0.32565 0.0633319 0.102471
23 1 0.152194 0.314109 0.108541
110 1 0.151549 0.489018 0.0992235
102 1 0.0475582 0.258556 0.0422341
6 1 0.0319223 0.33378 0.181387
225 1 0.0241526 0.414312 0.0364043
287 1 0.237087 0.496639 0.198562
307 2 0.476859 0.374671 0.115575
277 1 0.359142 0.391584 0.124802
330 2 0.395214 0.469337 0.180983
271 1 0.295042 0.279651 0.15912
186 1 0.404727 0.309522 0.242073
11 1 0.207124 0.165592 0.285049
72 1 0.0951633 0.0892766 0.290271
16 1 0.226123 0.0675395 0.381423
355 2 0.117772 0.126362 0.405095
275 1 0.20263 0.227695 0.421448
350 2 0.0149817 0.185419 0.365618
28 1 0.00951617 0.17965 0.258072
289 2 0.311415 0.11884 0.280269
18 1 0.342775 0.148297 0.390586
104 1 0.498296 0.0824292 0.368808
97 1 0.485757 0.216141 0.311887
133 1 0.442347 0.0320447 0.457243
245 1 0.393337 0.060071 0.255284
293 2 0.426452 0.227836 0.476163
125 1 0.168279 0.355203 0.302483
132 1 0.101762 0.484283 0.256048
153 1 0.228363 0.456502 0.425437
128 1 0.094901 0.366509 0.451079
242 1 0.0372762 0.314721 0.314117
359 2 0.244734 0.319961 0.372
255 1 0.291674 0.264998 0.302099
224 1 0.433139 0.407745 0.344519
264 1 0.291925 0.423462 0.297712
192 1 0.391802 0.284011 0.382697
143 1 0.421012 0.392152 0.474815
4 1 0.12087 0.0570733 0.528878
323 2 0.0351323 0.146641 0.615998
173 1 0.197598 0.166073 0.598249
50 1 0.225796 0.0422992 0.649414
172 1 0.0534768 0.0527539 0.647651
86 1 0.0370452 0.22031 0.50278
328 2 0.471452 0.0643603 0.703976
286 1 0.363477 0.0880143 0.551619
341 2 0.352265 0.184722 0.726886
211 1 0.419965 0.227987 0.596342
219 1 0.494064 0.115605 0.613617
93 1 0.204444 0.342866 0.567983
88 1 0.0936394 0.456844 0.636193
346 2 0.140831 0.289916 0.644159
177 1 0.233899 0.353067 0.746128
35 1 0.0119669 0.250879 0.637724
138 1 0.491774 0.348343 0.660474
124 1 0.311615 0.271947 0.510169
14 1 0.266725 0.253933 0.652136
69 1 0.304571 0.396762 0.622061
111 1 0.379922 0.328789 0.716554
15 1 0.412114 0.470145 0.712173
236 1 0.038756 0.231758 0.841744
55 1 0.226385 0.0549256 0.881135
56 1 0.103098 0.140357 0.910556
216 1 0.146655 0.106361 0.782478
40 1 0.288646 0.197311 0.813215
162 1 0.479319 0.0796533 0.958192
71 1 0.480314 0.0887112 0.832892
295 2 0.473776 0.245253 0.803566
348 2 0.464009 0.231982 0.941932
73 1 0.342061 0.109637 0.884961
154 1 0.317439 0.0600371 0.757314
184 1 0.0813466 0.365814 0.760816
174 1 0.0805602 0.436787 0.887725
158 1 0.176947 0.253388 0.769889
257 1 0.167587 0.475488 0.753298
324 2 0.237451 0.270402 0.96238
21 1 0.140076 0.32136 0.909824
276 1 0.360234 0.296445 0.924461
279 1 0.449001 0.402323 0.984696
247 1 0.375022 0.409247 0.839197
129 1 0.260859 0.371702 0.987119
233 1 0.19276 0.598801 0.140293
83 1 0.0551438 0.68096 0.129795
48 1 0.147504 0.640298 0.0314558
22 1 0.185488 0.696984 0.234406
228 1 0.428227 0.537206 0.0589566
63 1 0.3092 0.676108 0.0208155
263 1 0.435709 0.648367 0.103263
319 2 0.340549 0.575835 0.12849
360 2 0.217494 0.92547 0.0538837
195 1 0.00118585 0.842522 0.149779
284 1 0.171588 0.806257 0.0721703
37 1 0.0840716 0.9332 0.187731
8 1 0.215595 0.825814 0.191255
171 1 0.457598 0.817921 0.119016
317 2 0.418521 0.956525 0.0364037
258 1 0.303612 0.936598 0.197972
107 1 0.493607 0.951456 0.118555
244 1 0.327484 0.857476 0.0197081
137 1 0.321342 0.754432 0.142476
336 2 0.450935 0.80138 0.246513
29 1 0.0714733 0.504525 0.387578
118 1 0.196552 0.569472 0.344608
292 2 0.0521725 0.68446 0.372538
96 1 0.204788 0.682214 0.405197
181 1 0.0111172 0.598852 0.252926
322 2 0.284378 0.586569 0.448312
281 1 0.42728 0.531086 0.305974
256 1 0.343601 0.660889 0.387143
248 1 0.305822 0.611307 0.251015
274 1 0.373515 0.739644 0.290367
166 1 0.487963 0.629488 0.257561
329 2 0.180179 0.921194 0.436874
202 1 0.127095 0.927212 0.303387
226 1 0.0355589 0.846058 0.35655
238 1 0.0759034 0.847934 0.484928
246 1 0.199715 0.816589 0.323788
180 1 0.0203948 0.966687 0.441394
291 2 0.103043 0.787398 0.257981
300 2 0.447505 0.85539 0.37752
243 1 0.358773 0.932569 0.395078
156 1 0.417071 0.925679 0.267649
1 1 0.359117 0.819495 0.46955
190 1 0.250652 0.976828 0.304726
343 2 0.469059 0.751123 0.391161
196 1 0.115283 0.728175 0.655155
168 1 0.228921 0.533914 0.558549
122 1 0.157994 0.615241 0.717173
42 1 0.0751761 0.571938 0.527753
183 1 0.420921 0.659807 0.520008
305 2 0.255426 0.693574 0.743906
75 1 0.285099 0.635273 0.618362
285 1 0.381365 0.510828 0.593636
333 2 0.394037 0.743796 0.635642
74 1 0.426779 0.620698 0.691088
201 1 0.498232 0.500932 0.617941
223 1 0.249198 0.940571 0.713458
208 1 0.213564 0.880267 0.544967
215 1 0.128219 0.925556 0.639137
241 1 0.0300366 0.81449 0.703629
38 1 0.00914957 0.900188 0.584431
68 1 0.449072 0.953243 0.678621
99 1 0.385493 0.885953 0.749907
240 1 0.281527 0.802261 0.658622
39 1 0.371395 0.890788 0.590209
304 2 0.48853 0.872793 0.616139
80 1 0.284028 0.990932 0.501961
266 1 0.493795 0.776743 0.513013
2 1 0.175849 0.628769 0.853621
358 2 0.16384 0.537863 0.946124
352 2 0.0410043 0.60418 0.889353
130 1 0.23173 0.747141 0.913111
78 1 0.0272332 0.578932 0.768615
20 1 0.070353 0.714105 0.844825
222 1 0.0656212 0.551669 0.980167
342 2 0.0918556 0.747182 0.999032
235 1 0.385961 0.732709 0.766189
141 1 0.351352 0.682961 0.873453
116 1 0.376424 0.564897 0.938667
280 1 0.4687 0.540662 0.816501
297 2 0.275095 0.629102 0.931589
189 1 0.296158 0.580537 0.75182
221 1 0.270134 0.513269 0.977861
114 1 0.0794685 0.951897 0.762643
94 1 0.150182 0.909637 0.951919
249 1 0.0618037 0.837981 0.846783
142 1 0.198697 0.836089 0.790765
126 1 0.0303505 0.898866 0.989381
354 2 0.458912 0.847259 0.835872
66 1 0.310078 0.931854 0.833099
278 1 0.385925 0.812808 0.898821
353 2 0.394284 0.997865 0.805809
231 1 0.411175 0.977199 0.914556
345 2 0.252506 0.850005 0.922091
205 1 0.492075 0.799708 0.987434
193 1 0.688419 0.0738752 0.242409
46 1 0.705083 0.0646284 0.0809219
36 1 0.528414 0.11839 0.186561
356 2 0.893855 0.0527447 0.0133133
85 1 0.822986 0.0404071 0.221875
155 1 0.791717 0.175852 0.16024
204 1 0.918919 0.0997077 0.168406
117 1 0.685729 0.398402 0.225496
84 1 0.554526 0.494018 0.0977905
326 2 0.633434 0.263832 0.133125
131 1 0.686264 0.491726 0.0521133
164 1 0.599161 0.375516 0.130908
79 1 0.544888 0.281082 0.202926
294 2 0.804404 0.425583 0.0441151
17 1 0.887478 0.400993 0.112391
61 1 0.831786 0.444351 0.243006
167 1 0.917408 0.251211 0.161755
26 1 0.789174 0.290602 0.0889347
198 1 0.528292 0.172335 0.443955
44 1 0.659729 0.227599 0.252809
313 2 0.601637 0.0328894 0.318515
41 1 0.58745 0.0494086 0.462891
67 1 0.614896 0.158634 0.348423
150 1 0.740225 0.0971398 0.394818
163 1 0.96268 0.0526961 0.343361
159 1 0.859878 0.170713 0.278995
12 1 0.8722 0.18509 0.406559
51 1 0.576017 0.437005 0.306776
283 1 0.578148 0.457516 0.440446
95 1 0.683496 0.346784 0.35733
175 1 0.533699 0.327139 0.390626
302 2 0.620289 0.335022 0.467139
82 1 0.941089 0.41379 0.325094
351 2 0.917474 0.276802 0.291732
239 1 0.772564 0.257735 0.339179
265 1 0.965092 0.290293 0.420353
311 2 0.800121 0.359564 0.325989
185 1 0.740405 0.0438055 0.526066
338 2 0.641432 0.155723 0.619799
100 1 0.517512 0.216775 0.716819
144 1 0.6439 0.0161264 0.610748
24 1 0.611995 0.0772519 0.736374
306 2 0.540831 0.0159263 0.570736
10 1 0.697074 0.215419 0.503321
89 1 0.896554 0.00478709 0.533474
182 1 0.809109 0.120023 0.601677
47 1 0.757895 0.156754 0.712073
49 1 0.880207 0.246037 0.634231
53 1 0.888859 0.14113 0.708797
123 1 0.936386 0.14325 0.52864
200 1 0.816603 0.00753206 0.724865
136 1 0.546796 0.378391 0.537003
230 1 0.731849 0.404504 0.512082
191 1 0.61327 0.261032 0.619776
90 1 0.65698 0.449893 0.678162
312 2 0.636641 0.477688 0.539606
76 1 0.760838 0.265021 0.59882
149 1 0.753706 0.335736 0.736187
332 2 0.807988 0.442607 0.630748
58 1 0.849323 0.343231 0.520699
87 1 0.94715 0.368615 0.650027
349 2 0.906774 0.472604 0.555796
197 1 0.986491 0.357026 0.529199
213 1 0.738605 0.119693 0.842772
203 1 0.609609 0.22676 0.960694
45 1 0.601063 0.0519232 0.916619
91 1 0.742895 0.170495 0.966428
112 1 0.88553 0.247939 0.997425
60 1 0.823236 0.233777 0.858747
13 1 0.979712 0.119371 0.980077
269 1 0.912693 0.0844767 0.832753
146 1 0.812612 0.00712656 0.965914
214 1 0.725081 0.345027 0.9373
7 1 0.658026 0.457157 0.820165
262 1 0.515963 0.363908 0.790964
25 1 0.701594 0.263938 0.855244
19 1 0.598743 0.384437 0.955644
321 2 0.843034 0.362408 0.962623
43 1 0.893375 0.458659 0.967407
259 1 0.930788 0.25008 0.772005
272 1 0.822363 0.405224 0.841126
273 1 0.950892 0.35324 0.889547
209 1 0.945523 0.432959 0.771955
337 2 0.753272 0.479499 0.778249
170 1 0.541792 0.723007 0.167929
9 1 0.611734 0.583803 0.229349
31 1 0.732702 0.666723 0.196497
103 1 0.63251 0.616795 0.0957363
33 1 0.981889 0.507749 0.155657
261 1 0.961545 0.731266 0.220726
64 1 0.879683 0.602978 0.151644
139 1 0.924509 0.557123 0.0347548
325 2 0.844772 0.647048 0.0546315
176 1 0.938796 0.704455 0.0729927
140 1 0.776184 0.542686 0.130058
108 1 0.737281 0.762555 0.017582
232 1 0.622856 0.954645 0.174278
250 1 0.591163 0.977088 0.0196155
282 1 0.634352 0.84325 0.0920234
298 2 0.567402 0.800169 0.216989
301 2 0.759095 0.832311 0.114143
152 1 0.868456 0.982529 0.0838627
81 1 0.852679 0.808135 0.0438866
260 1 0.820147 0.754724 0.187794
34 1 0.762944 0.946897 0.129734
218 1 0.917619 0.923599 0.232566
157 1 0.647504 0.641212 0.336292
316 2 0.667059 0.537085 0.439677
327 2 0.71595 0.696056 0.424505
120 1 0.521832 0.638351 0.396454
251 1 0.747251 0.555608 0.318616
207 1 0.608133 0.724685 0.451398
303 2 0.681945 0.504171 0.26891
134 1 0.817528 0.676035 0.337695
270 1 0.821862 0.705434 0.479339
296 2 0.895789 0.610356 0.473218
227 1 0.937483 0.727253 0.389721
151 1 0.957329 0.510917 0.436754
160 1 0.829529 0.501642 0.416741
30 1 0.619537 0.878459 0.412259
77 1 0.668496 0.795517 0.257689
229 1 0.715891 0.924672 0.278932
210 1 0.516111 0.956337 0.36405
187 1 0.772304 0.790036 0.341543
314 2 0.793699 0.875694 0.438548
299 2 0.95826 0.790635 0.480338
101 1 0.813311 0.990991 0.336503
106 1 0.893216 0.851823 0.356467
290 2 0.904671 0.992179 0.423659
98 1 0.664133 0.586516 0.681901
315 2 0.571141 0.536734 0.737809
237 1 0.577621 0.581239 0.52689
320 2 0.629468 0.708196 0.570606
148 1 0.514845 0.734853 0.665241
52 1 0.708686 0.637933 0.519393
105 1 0.98221 0.529384 0.656561
339 2 0.850741 0.637633 0.612081
121 1 0.805547 0.590635 0.701297
109 1 0.781998 0.532735 0.575327
113 1 0.973322 0.697556 0.684807
135 1 0.978583 0.678976 0.539781
288 1 0.540913 0.878277 0.723916
217 1 0.516374 0.92724 0.508551
54 1 0.728907 0.759386 0.605096
70 1 0.660247 0.899219 0.571465
344 2 0.719149 0.88084 0.700065
3 1 0.62705 0.750916 0.71574
334 2 0.825423 0.753947 0.628595
310 2 0.929951 0.823082 0.641215
161 1 0.946411 0.979486 0.718964
27 1 0.879059 0.840139 0.729974
115 1 0.815709 0.90157 0.636058
92 1 0.879077 0.866241 0.534462
335 2 0.691663 0.567593 0.842525
62 1 0.514214 0.735188 0.796218
268 1 0.691565 0.688365 0.80915
147 1 0.594359 0.520014 0.957332
5 1 0.586606 0.626667 0.838241
347 2 0.698464 0.604785 0.974487
165 1 0.593608 0.718135 0.958032
309 2 0.717978 0.746372 0.898287
340 2 0.992245 0.718184 0.925728
308 2 0.838724 0.689171 0.762959
318 2 0.895699 0.552076 0.871536
206 1 0.759815 0.525027 0.925524
127 1 0.897538 0.709536 0.851421
65 1 0.847238 0.63184 0.954485
357 2 0.585132 0.929862 0.84167
194 1 0.742272 0.894896 0.990345
267 1 0.673194 0.854393 0.823717
57 1 0.640027 0.836024 0.941525
253 1 0.693401 0.984344 0.784959
119 1 0.819935 0.927311 0.85458
252 1 0.932457 0.832484 0.907528
199 1 0.785637 0.798461 0.823635
220 1 0.941144 0.998532 0.936174
331 2 0.843188 0.778188 0.924864
