ITEM: TIMESTEP
0
ITEM: NUMBER OF ATOMS
360
ITEM: BOX BOUNDS pp pp pp
0.0000000000000000e+00 6.6943295008216896e+00
0.0000000000000000e+00 6.6943295008216896e+00
0.0000000000000000e+00 6.6943295008216896e+00
ITEM: ATOMS id type xs ys zs
179 1 0.063636 0.0210142 0.0774593
188 1 0.188009 0.0553593 0.0519006
234 1 0.0742555 0.112211 0.176083
178 1 0.21297 0.174411 0.142116
32 1 0.195759 0.0415538 0.189075
254 1 0.160916 0.213303 0.00300824
145 1 0.33391 0.178992 0.0224621
59 1 0.498673 0.198596 0.0288927
169 1 0.40275 0.185055 0.14803
212 1 0.32565 0.0633319 0.102471
23 1 0.152194 0.314109 0.108541
110 1 0.151549 0.489018 0.0992235
102 1 0.0475582 0.258556 0.0422341
6 1 0.0319223 0.33378 0.181387
225 1 0.0241526 0.414312 0.0364043
287 1 0.237087 0.496639 0.198562
307 2 0.476859 0.374671 0.115575
277 1 0.359142 0.391584 0.124802
330 2 0.395214 0.469337 0.180983
271 1 0.295042 0.279651 0.15912
186 1 0.404727 0.309522 0.242073
11 1 0.207124 0.165592 0.285049
72 1 0.0951633 0.0892766 0.290271
16 1 0.226123 0.0675395 0.381423
355 2 0.117772 0.126362 0.405095
275 1 0.20263 0.227695 0.421448
350 2 0.0149817 0.185419 0.365618
28 1 0.00951617 0.17965 0.258072
289 2 0.311415 0.11884 0.280269
18 1 0.342775 0.148297 0.390586
104 1 0.498296 0.0824292 0.368808
97 1 0.485757 0.216141 0.311887
133 1 0.442347 0.0320447 0.457243
245 1 0.393337 0.060071 0.255284
293 2 0.426452 0.227836 0.476163
125 1 0.168279 0.355203 0.302483
132 1 0.101762 0.484283 0.256048
153 1 0.228363 0.456502 0.425437
128 1 0.094901 0.366509 0.451079
242 1 0.0372762 0.314721 0.314117
359 2 0.244734 0.319961 0.372
255 1 0.291674 0.264998 0.302099
224 1 0.433139 0.407745 0.344519
264 1 0.291925 0.423462 0.297712
192 1 0.391802 0.284011 0.382697
143 1 0.421012 0.392152 0.474815
4 1 0.12087 0.0570733 0.528878
323 2 0.0351323 0.146641 0.615998
173 1 0.197598 0.166073 0.598249
50 1 0.225796 0.0422992 0.649414
172 1 0.0534768 0.0527539 0.647651
86 1 0.0370452 0.22031 0.50278
328 2 0.471452 0.0643603 0.703976
286 1 0.363477 0.0880143 0.551619
341 2 0.352265 0.184722 0.726886
211 1 0.419965 0.227987 0.596342
219 1 0.494064 0.115605 0.613617
93 1 0.204444 0.342866 0.567983
88 1 0.0936394 0.456844 0.636193
346 2 0.140831 0.289916 0.644159
177 1 0.233899 0.353067 0.746128
35 1 0.0119669 0.250879 0.637724
138 1 0.491774 0.348343 0.660474
124 1 0.311615 0.271947 0.510169
14 1 0.266725 0.253933 0.652136
69 1 0.304571 0.396762 0.622061
111 1 0.379922 0.328789 0.716554
15 1 0.412114 0.470145 0.712173
236 1 0.038756 0.231758 0.841744
55 1 0.226385 0.0549256 0.881135
56 1 0.103098 0.140357 0.910556
216 1 0.146655 0.106361 0.782478
40 1 0.288646 0.197311 0.813215
162 1 0.479319 0.0796533 0.958192
71 1 0.480314 0.0887112 0.832892
295 2 0.473776 0.245253 0.803566
348 2 0.464009 0.231982 0.941932
73 1 0.342061 0.109637 0.884961
154 1 0.317439 0.0600371 0.757314
184 1 0.0813466 0.365814 0.760816
174 1 0.0805602 0.436787 0.887725
158 1 0.176947 0.253388 0.769889
257 1 0.167587 0.475488 0.753298
324 2 0.237451 0.270402 0.96238
21 1 0.140076 0.32136 0.909824
276 1 0.360234 0.296445 0.924461
279 1 0.449001 0.402323 0.984696
247 1 0.375022 0.409247 0.839197
129 1 0.260859 0.371702 0.987119
233 1 0.19276 0.598801 0.140293
83 1 0.0551438 0.68096 0.129795
48 1 0.147504 0.640298 0.0314558
22 1 0.185488 0.696984 0.234406
228 1 0.428227 0.537206 0.0589566
63 1 0.3092 0.676108 0.0208155
263 1 0.435709 0.648367 0.103263
319 2 0.340549 0.575835 0.12849
360 2 0.217494 0.92547 0.0538837
195 1 0.00118585 0.842522 0.149779
284 1 0.171588 0.806257 0.0721703
37 1 0.0840716 0.9332 0.187731
8 1 0.215595 0.825814 0.191255
171 1 0.457598 0.817921 0.119016
317 2 0.418521 0.956525 0.0364037
258 1 0.303612 0.936598 0.197972
107 1 0.493607 0.951456 0.118555
244 1 0.327484 0.857476 0.0197081
137 1 0.321342 0.754432 0.142476
336 2 0.450935 0.80138 0.246513
29 1 0.0714733 0.504525 0.387578
118 1 0.196552 0.569472 0.344608
292 2 0.0521725 0.68446 0.372538
96 1 0.204788 0.682214 0.405197
181 1 0.0111172 0.598852 0.252926
322 2 0.284378 0.586569 0.448312
281 1 0.42728 0.531086 0.305974
256 1 0.343601 0.660889 0.387143
248 1 0.305822 0.611307 0.251015
274 1 0.373515 0.739644 0.290367
166 1 0.487963 0.629488 0.257561
329 2 0.180179 0.921194 0.436874
202 1 0.127095 0.927212 0.303387
226 1 0.0355589 0.846058 0.35655
238 1 0.0759034 0.847934 0.484928
246 1 0.199715 0.816589 0.323788
180 1 0.0203948 0.966687 0.441394
291 2 0.103043 0.787398 0.257981
300 2 0.447505 0.85539 0.37752
243 1 0.358773 0.932569 0.395078
156 1 0.417071 0.925679 0.267649
1 1 0.359117 0.819495 0.46955
190 1 0.250652 0.976828 0.304726
343 2 0.469059 0.751123 0.391161
196 1 0.115283 0.728175 0.655155
168 1 0.228921 0.533914 0.558549
122 1 0.157994 0.615241 0.717173
42 1 0.0751761 0.571938 0.527753
183 1 0.420921 0.659807 0.520008
305 2 0.255426 0.693574 0.743906
75 1 0.285099 0.635273 0.618362
285 1 0.381365 0.510828 0.593636
333 2 0.394037 0.743796 0.635642
74 1 0.426779 0.620698 0.691088
201 1 0.498232 0.500932 0.617941
223 1 0.249198 0.940571 0.713458
208 1 0.213564 0.880267 0.544967
215 1 0.128219 0.925556 0.639137
241 1 0.0300366 0.81449 0.703629
38 1 0.00914957 0.900188 0.584431
68 1 0.449072 0.953243 0.678621
99 1 0.385493 0.885953 0.749907
240 1 0.281527 0.802261 0.658622
39 1 0.371395 0.890788 0.590209
304 2 0.48853 0.872793 0.616139
80 1 0.284028 0.990932 0.501961
266 1 0.493795 0.776743 0.513013
2 1 0.175849 0.628769 0.853621
358 2 0.16384 0.537863 0.946124
352 2 0.0410043 0.60418 0.889353
130 1 0.23173 0.747141 0.913111
78 1 0.0272332 0.578932 0.768615
20 1 0.070353 0.714105 0.844825
222 1 0.0656212 0.551669 0.980167
342 2 0.0918556 0.747182 0.999032
235 1 0.385961 0.732709 0.766189
141 1 0.351352 0.682961 0.873453
116 1 0.376424 0.564897 0.938667
280 1 0.4687 0.540662 0.816501
297 2 0.275095 0.629102 0.931589
189 1 0.296158 0.580537 0.75182
221 1 0.270134 0.513269 0.977861
114 1 0.0794685 0.951897 0.762643
94 1 0.150182 0.909637 0.951919
249 1 0.0618037 0.837981 0.846783
142 1 0.198697 0.836089 0.790765
126 1 0.0303505 0.898866 0.989381
354 2 0.458912 0.847259 0.835872
66 1 0.310078 0.931854 0.833099
278 1 0.385925 0.812808 0.898821
353 2 0.394284 0.997865 0.805809
231 1 0.411175 0.977199 0.914556
345 2 0.252506 0.850005 0.922091
205 1 0.492075 0.799708 0.987434
193 1 0.688419 0.0738752 0.242409
46 1 0.705083 0.0646284 0.0809219
36 1 0.528414 0.11839 0.186561
356 2 0.893855 0.0527447 0.0133133
85 1 0.822986 0.0404071 0.221875
155 1 0.791717 0.175852 0.16024
204 1 0.918919 0.0997077 0.168406
117 1 0.685729 0.398402 0.225496
84 1 0.554526 0.494018 0.0977905
326 2 0.633434 0.263832 0.133125
131 1 0.686264 0.491726 0.0521133
164 1 0.599161 0.375516 0.130908
79 1 0.544888 0.281082 0.202926
294 2 0.804404 0.425583 0.0441151
17 1 0.887478 0.400993 0.112391
61 1 0.831786 0.444351 0.243006
167 1 0.917408 0.251211 0.161755
26 1 0.789174 0.290602 0.0889347
198 1 0.528292 0.172335 0.443955
44 1 0.659729 0.227599 0.252809
313 2 0.601637 0.0328894 0.318515
41 1 0.58745 0.0494086 0.462891
67 1 0.614896 0.158634 0.348423
150 1 0.740225 0.0971398 0.394818
163 1 0.96268 0.0526961 0.343361
159 1 0.859878 0.170713 0.278995
12 1 0.8722 0.18509 0.406559
51 1 0.576017 0.437005 0.306776
283 1 0.578148 0.457516 0.440446
95 1 0.683496 0.346784 0.35733
175 1 0.533699 0.327139 0.390626
302 2 0.620289 0.335022 0.467139
82 1 0.941089 0.41379 0.325094
351 2 0.917474 0.276802 0.291732
239 1 0.772564 0.257735 0.339179
265 1 0.965092 0.290293 0.420353
311 2 0.800121 0.359564 0.325989
185 1 0.740405 0.0438055 0.526066
338 2 0.641432 0.155723 0.619799
100 1 0.517512 0.216775 0.716819
144 1 0.6439 0.0161264 0.610748
24 1 0.611995 0.0772519 0.736374
306 2 0.540831 0.0159263 0.570736
10 1 0.697074 0.215419 0.503321
89 1 0.896554 0.00478709 0.533474
182 1 0.809109 0.120023 0.601677
47 1 0.757895 0.156754 0.712073
49 1 0.880207 0.246037 0.634231
53 1 0.888859 0.14113 0.708797
123 1 0.936386 0.14325 0.52864
200 1 0.816603 0.00753206 0.724865
136 1 0.546796 0.378391 0.537003
230 1 0.731849 0.404504 0.512082
191 1 0.61327 0.261032 0.619776
90 1 0.65698 0.449893 0.678162
312 2 0.636641 0.477688 0.539606
76 1 0.760838 0.265021 0.59882
149 1 0.753706 0.335736 0.736187
332 2 0.807988 0.442607 0.630748
58 1 0.849323 0.343231 0.520699
87 1 0.94715 0.368615 0.650027
349 2 0.906774 0.472604 0.555796
197 1 0.986491 0.357026 0.529199
213 1 0.738605 0.119693 0.842772
203 1 0.609609 0.22676 0.960694
45 1 0.601063 0.0519232 0.916619
91 1 0.742895 0.170495 0.966428
112 1 0.88553 0.247939 0.997425
60 1 0.823236 0.233777 0.858747
13 1 0.979712 0.119371 0.980077
269 1 0.912693 0.0844767 0.832753
146 1 0.812612 0.00712656 0.965914
214 1 0.725081 0.345027 0.9373
7 1 0.658026 0.457157 0.820165
262 1 0.515963 0.363908 0.790964
25 1 0.701594 0.263938 0.855244
19 1 0.598743 0.384437 0.955644
321 2 0.843034 0.362408 0.962623
43 1 0.893375 0.458659 0.967407
259 1 0.930788 0.25008 0.772005
272 1 0.822363 0.405224 0.841126
273 1 0.950892 0.35324 0.889547
209 1 0.945523 0.432959 0.771955
337 2 0.753272 0.479499 0.778249
170 1 0.541792 0.723007 0.167929
9 1 0.611734 0.583803 0.229349
31 1 0.732702 0.666723 0.196497
103 1 0.63251 0.616795 0.0957363
33 1 0.981889 0.507749 0.155657
261 1 0.961545 0.731266 0.220726
64 1 0.879683 0.602978 0.151644
139 1 0.924509 0.557123 0.0347548
325 2 0.844772 0.647048 0.0546315
176 1 0.938796 0.704455 0.0729927
140 1 0.776184 0.542686 0.130058
108 1 0.737281 0.762555 0.017582
232 1 0.622856 0.954645 0.174278
250 1 0.591163 0.977088 0.0196155
282 1 0.634352 0.84325 0.0920234
298 2 0.567402 0.800169 0.216989
301 2 0.759095 0.832311 0.114143
152 1 0.868456 0.982529 0.0838627
81 1 0.852679 0.808135 0.0438866
260 1 0.820147 0.754724 0.187794
34 1 0.762944 0.946897 0.129734
218 1 0.917619 0.923599 0.232566
157 1 0.647504 0.641212 0.336292
316 2 0.667059 0.537085 0.439677
327 2 0.71595 0.696056 0.424505
120 1 0.521832 0.638351 0.396454
251 1 0.747251 0.555608 0.318616
207 1 0.608133 0.724685 0.451398
303 2 0.681945 0.504171 0.26891
134 1 0.817528 0.676035 0.337695
270 1 0.821862 0.705434 0.479339
296 2 0.895789 0.610356 0.473218
227 1 0.937483 0.727253 0.389721
151 1 0.957329 0.510917 0.436754
160 1 0.829529 0.501642 0.416741
30 1 0.619537 0.878459 0.412259
77 1 0.668496 0.795517 0.257689
229 1 0.715891 0.924672 0.278932
210 1 0.516111 0.956337 0.36405
187 1 0.772304 0.790036 0.341543
314 2 0.793699 0.875694 0.438548
299 2 0.95826 0.790635 0.480338
101 1 0.813311 0.990991 0.336503
106 1 0.893216 0.851823 0.356467
290 2 0.904671 0.992179 0.423659
98 1 0.664133 0.586516 0.681901
315 2 0.571141 0.536734 0.737809
237 1 0.577621 0.581239 0.52689
320 2 0.629468 0.708196 0.570606
148 1 0.514845 0.734853 0.665241
52 1 0.708686 0.637933 0.519393
105 1 0.98221 0.529384 0.656561
339 2 0.850741 0.637633 0.612081
121 1 0.805547 0.590635 0.701297
109 1 0.781998 0.532735 0.575327
113 1 0.973322 0.697556 0.684807
135 1 0.978583 0.678976 0.539781
288 1 0.540913 0.878277 0.723916
217 1 0.516374 0.92724 0.508551
54 1 0.728907 0.759386 0.605096
70 1 0.660247 0.899219 0.571465
344 2 0.719149 0.88084 0.700065
3 1 0.62705 0.750916 0.71574
334 2 0.825423 0.753947 0.628595
310 2 0.929951 0.823082 0.641215
161 1 0.946411 0.979486 0.718964
27 1 0.879059 0.840139 0.729974
115 1 0.815709 0.90157 0.636058
92 1 0.879077 0.866241 0.534462
335 2 0.691663 0.567593 0.842525
62 1 0.514214 0.735188 0.796218
268 1 0.691565 0.688365 0.80915
147 1 0.594359 0.520014 0.957332
5 1 0.586606 0.626667 0.838241
347 2 0.698464 0.604785 0.974487
165 1 0.593608 0.718135 0.958032
309 2 0.717978 0.746372 0.898287
340 2 0.992245 0.718184 0.925728
308 2 0.838724 0.689171 0.762959
318 2 0.895699 0.552076 0.871536
206 1 0.759815 0.525027 0.925524
127 1 0.897538 0.709536 0.851421
65 1 0.847238 0.63184 0.954485
357 2 0.585132 0.929862 0.84167
194 1 0.742272 0.894896 0.990345
267 1 0.673194 0.854393 0.823717
57 1 0.640027 0.836024 0.941525
253 1 0.693401 0.984344 0.784959
119 1 0.819935 0.927311 0.85458
252 1 0.932457 0.832484 0.907528
199 1 0.785637 0.798461 0.823635
220 1 0.941144 0.998532 0.936174
331 2 0.843188 0.778188 0.924864
ITEM: TIMESTEP
10000
ITEM: NUMBER OF ATOMS
360
ITEM: BOX BOUNDS pp pp pp
0.0000000000000000e+00 6.6943295008216896e+00
0.0000000000000000e+00 6.6943295008216896e+00
0.0000000000000000e+00 6.6943295008216896e+00
ITEM: ATOMS id type xs ys zs
188 1 0.0515162 0.216624 0.077535
289 2 0.148936 0.207574 0.198646
291 2 0.0662064 0.0067382 0.0242846
93 1 0.0380942 0.122769 0.214838
112 1 0.126016 0.0618607 0.112819
32 1 0.251157 0.107241 0.211002
273 1 0.258205 0.21267 0.111846
169 1 0.267268 0.072485 0.0266868
250 1 0.38564 0.11609 0.12506
275 1 0.377594 0.225711 0.241895
324 2 0.46331 0.0273735 0.0603379
293 2 0.49314 0.20173 0.161857
21 1 0.117105 0.35877 0.0604038
311 2 0.0702748 0.396255 0.166294
33 1 0.0163353 0.471715 0.0776998
28 1 0.0432399 0.276794 0.208707
222 1 0.153063 0.499196 0.133161
162 1 0.40712 0.280256 0.0802634
297 2 0.422829 0.344468 0.223237
63 1 0.273337 0.335648 0.182777
212 1 0.447473 0.429036 0.127434
263 1 0.304697 0.488321 0.120528
276 1 0.285575 0.356713 0.010476
350 2 0.0168011 0.215983 0.439084
313 2 0.171784 0.141441 0.308278
86 1 0.0685011 0.108926 0.391054
72 1 0.239975 0.243471 0.296584
304 2 0.187739 0.0196763 0.374448
218 1 0.0955097 0.244208 0.342585
178 1 0.110023 0.0210556 0.274061
156 1 0.153511 0.0347413 0.490828
266 1 0.300739 0.124017 0.358099
190 1 0.451916 0.100093 0.320176
200 1 0.394524 0.101493 0.473854
118 1 0.131656 0.479131 0.355174
294 2 0.0658887 0.359313 0.339175
132 1 0.161036 0.382024 0.256548
271 1 0.210752 0.274745 0.447948
95 1 0.0738891 0.330464 0.469049
168 1 0.16072 0.470356 0.495018
251 1 0.00538166 0.472577 0.254617
277 1 0.359817 0.43076 0.275811
31 1 0.495364 0.476339 0.297132
287 1 0.255834 0.396533 0.357285
224 1 0.38412 0.460107 0.424959
243 1 0.35587 0.257398 0.388309
355 2 0.0196181 0.0190153 0.507944
215 1 0.124632 0.17638 0.503436
238 1 0.0462697 0.0670451 0.700132
153 1 0.19037 0.18098 0.642384
38 1 0.202919 0.0637587 0.7293
317 2 0.192922 0.0366973 0.603689
216 1 0.0591403 0.216686 0.717316
154 1 0.342292 0.184546 0.674603
50 1 0.37935 0.240259 0.536907
286 1 0.468758 0.0929915 0.65171
39 1 0.330682 0.0408432 0.61853
16 1 0.266284 0.134661 0.527521
197 1 0.166266 0.3164 0.589728
69 1 0.102878 0.444067 0.63123
122 1 0.23734 0.447763 0.664888
349 2 0.0108783 0.298567 0.588779
173 1 0.185692 0.31992 0.74802
296 2 0.0341572 0.448208 0.527552
359 2 0.279451 0.294981 0.626802
138 1 0.338175 0.318877 0.727897
248 1 0.40153 0.421493 0.625519
15 1 0.482707 0.269545 0.646101
191 1 0.298429 0.371028 0.518145
100 1 0.475231 0.383411 0.505382
40 1 0.15404 0.18522 0.844525
331 2 0.0649188 0.0882587 0.818915
249 1 0.172627 0.230755 0.982485
177 1 0.0727388 0.129205 0.960243
152 1 0.175411 0.0456553 0.891354
295 2 0.244274 0.21741 0.770819
24 1 0.446 0.232 0.806751
145 1 0.490684 0.138056 0.914109
55 1 0.397266 0.023369 0.942079
114 1 0.310552 0.134956 0.856942
328 2 0.423185 0.124148 0.776663
254 1 0.34677 0.190187 0.982203
116 1 0.078798 0.487761 0.939091
23 1 0.209842 0.491148 0.997047
14 1 0.0288152 0.257112 0.866536
184 1 0.112101 0.462674 0.780073
225 1 0.159694 0.370906 0.90055
111 1 0.24959 0.472796 0.825219
279 1 0.428841 0.346643 0.878535
84 1 0.367263 0.467435 0.965851
257 1 0.38812 0.482566 0.765191
247 1 0.279382 0.27997 0.875742
137 1 0.184629 0.625068 0.0929872
298 2 0.201168 0.647869 0.211273
258 1 0.0463388 0.589718 0.184331
209 1 0.0472323 0.620006 0.0216379
110 1 0.321776 0.650111 0.171316
228 1 0.450649 0.599484 0.0888358
207 1 0.414936 0.747215 0.0592448
130 1 0.315909 0.612807 0.00500304
307 2 0.409858 0.528608 0.195411
131 1 0.474072 0.732529 0.202193
315 2 0.483022 0.50454 0.01981
245 1 0.109407 0.769804 0.170623
261 1 0.0474029 0.896204 0.101852
20 1 0.126641 0.772369 0.0327386
8 1 0.197691 0.887384 0.164822
85 1 0.176166 0.936111 0.0369025
232 1 0.45343 0.903136 0.0376209
244 1 0.268646 0.751881 0.0677149
22 1 0.330721 0.837562 0.222323
37 1 0.330885 0.956132 0.115979
327 2 0.457021 0.872336 0.173628
125 1 0.462602 0.990975 0.205517
233 1 0.175372 0.709103 0.443823
83 1 0.148378 0.638335 0.322129
292 2 0.119557 0.59109 0.450556
48 1 0.236659 0.543249 0.254235
160 1 0.00622028 0.655083 0.397929
166 1 0.389394 0.6925 0.479746
343 2 0.351664 0.694121 0.364726
128 1 0.261783 0.730344 0.284506
9 1 0.384071 0.589076 0.314328
170 1 0.27677 0.57235 0.418411
120 1 0.475202 0.711352 0.349703
333 2 0.47061 0.55096 0.403888
135 1 0.0540175 0.798933 0.453832
227 1 0.0651446 0.942148 0.399741
226 1 0.133009 0.773176 0.325584
4 1 0.0646427 0.894352 0.257031
322 2 0.159056 0.859233 0.429446
171 1 0.199383 0.910806 0.326286
104 1 0.330288 0.978428 0.287284
157 1 0.468835 0.943613 0.411147
19 1 0.3585 0.839971 0.382873
1 1 0.305367 0.971865 0.45163
221 1 0.253343 0.810247 0.496674
42 1 0.0137933 0.665208 0.68439
290 2 0.0613731 0.68328 0.537904
189 1 0.204624 0.599112 0.55004
274 1 0.15251 0.724811 0.606228
82 1 0.0214785 0.567807 0.555475
284 1 0.13225 0.580829 0.684539
208 1 0.312398 0.749927 0.630183
280 1 0.453742 0.538802 0.540086
174 1 0.294363 0.595969 0.697748
309 2 0.341989 0.635471 0.57927
71 1 0.439235 0.663629 0.649678
281 1 0.316278 0.516646 0.5686
358 2 0.467015 0.541956 0.678984
180 1 0.00695196 0.934408 0.62011
235 1 0.128045 0.878676 0.572791
75 1 0.142969 0.851351 0.713876
305 2 0.122953 0.978148 0.676161
183 1 0.464959 0.977666 0.567544
285 1 0.269143 0.908223 0.62641
54 1 0.413183 0.860296 0.51192
62 1 0.404904 0.763644 0.748925
99 1 0.41184 0.907786 0.684707
353 2 0.474303 0.751026 0.552939
141 1 0.0489739 0.608699 0.856571
223 1 0.176974 0.693725 0.7711
345 2 0.163806 0.55095 0.845704
278 1 0.196525 0.669226 0.924858
342 2 0.081185 0.704012 0.933726
319 2 0.302413 0.700259 0.766351
267 1 0.470301 0.657351 0.936854
25 1 0.498031 0.521676 0.90555
113 1 0.312074 0.601754 0.852029
107 1 0.34211 0.74485 0.906063
165 1 0.449358 0.629339 0.794362
360 2 0.163435 0.948842 0.827014
220 1 0.0338312 0.927223 0.768141
241 1 0.16248 0.828626 0.869932
252 1 0.0388267 0.854889 0.957504
2 1 0.00719088 0.776872 0.816633
155 1 0.0121553 0.995536 0.914039
357 2 0.48208 0.791607 0.977109
240 1 0.407385 0.883376 0.876466
142 1 0.308152 0.871643 0.972581
92 1 0.305809 0.988345 0.819634
66 1 0.490755 0.991173 0.828667
94 1 0.281441 0.836914 0.767245
46 1 0.718709 0.0842669 0.175981
326 2 0.664546 0.0944036 0.041005
45 1 0.723733 0.000919123 0.00585996
79 1 0.6586 0.231959 0.217952
41 1 0.568083 0.122394 0.220196
164 1 0.646254 0.218026 0.041174
36 1 0.510678 0.144489 0.058824
150 1 0.800118 0.136202 0.0628613
12 1 0.910446 0.149934 0.146065
159 1 0.944676 0.0114573 0.103138
351 2 0.956553 0.104246 0.00199018
59 1 0.626384 0.457927 0.117429
321 2 0.516099 0.264959 0.00734455
11 1 0.549002 0.325596 0.137992
64 1 0.753459 0.360132 0.123139
117 1 0.823344 0.255756 0.218847
181 1 0.914024 0.35288 0.124062
30 1 0.87055 0.496246 0.1715
143 1 0.50679 0.221705 0.449352
330 2 0.6526 0.0422741 0.440225
198 1 0.687702 0.0923468 0.326925
246 1 0.534173 0.0829178 0.455486
192 1 0.641993 0.239273 0.369878
172 1 0.925782 0.123949 0.440745
26 1 0.817577 0.217065 0.374833
306 2 0.98858 0.0582297 0.311175
167 1 0.845436 0.111011 0.277015
76 1 0.784803 0.0931636 0.446185
239 1 0.947794 0.205112 0.308226
186 1 0.50886 0.252745 0.286335
97 1 0.62496 0.391774 0.290098
90 1 0.573545 0.492736 0.46469
338 2 0.724825 0.30685 0.30687
341 2 0.50005 0.34827 0.371156
302 2 0.719573 0.443585 0.374625
264 1 0.635029 0.373386 0.44126
87 1 0.936726 0.372 0.433353
140 1 0.780338 0.425413 0.252724
175 1 0.796076 0.356583 0.421825
51 1 0.922102 0.364021 0.281098
182 1 0.732191 0.0223195 0.718661
133 1 0.650577 0.16211 0.625125
329 2 0.524441 0.161075 0.560122
217 1 0.688224 0.0450532 0.558301
255 1 0.716815 0.223459 0.517898
49 1 0.799848 0.139913 0.600579
161 1 0.982518 0.139434 0.571095
35 1 0.920647 0.241387 0.655104
56 1 0.890426 0.102783 0.707798
106 1 0.851538 0.00469434 0.591098
144 1 0.60383 0.269312 0.74885
124 1 0.592758 0.29974 0.561812
335 2 0.703509 0.257725 0.659877
136 1 0.555985 0.451366 0.626177
147 1 0.65424 0.412326 0.717419
211 1 0.500676 0.377693 0.745322
47 1 0.779124 0.331658 0.712254
242 1 0.925112 0.396215 0.587839
265 1 0.869832 0.262759 0.506442
352 2 0.840687 0.493785 0.589665
58 1 0.774733 0.388886 0.563839
53 1 0.993571 0.353658 0.717237
121 1 0.845529 0.47681 0.723279
81 1 0.569093 0.127815 0.772312
73 1 0.651752 0.134761 0.918716
356 2 0.699354 0.0957492 0.803046
194 1 0.565011 0.015477 0.979344
60 1 0.7852 0.187962 0.754942
334 2 0.95709 0.0332615 0.782119
204 1 0.871523 0.0286717 0.984884
91 1 0.817939 0.151197 0.91011
102 1 0.947789 0.124325 0.865552
34 1 0.824157 0.026956 0.837853
339 2 0.761374 0.245523 0.9882
6 1 0.915281 0.221994 0.995407
348 2 0.560441 0.417967 0.873217
214 1 0.72753 0.279365 0.859941
139 1 0.68325 0.379868 0.979938
337 2 0.683981 0.406823 0.838137
213 1 0.583084 0.266946 0.899581
203 1 0.533629 0.390412 0.99411
13 1 0.836336 0.357392 0.989617
17 1 0.803148 0.430911 0.851094
78 1 0.958516 0.45632 0.852471
259 1 0.884563 0.300935 0.854891
340 2 0.784501 0.482466 0.964984
179 1 0.997809 0.360593 0.979951
108 1 0.708015 0.552708 0.202394
5 1 0.585073 0.581336 0.0241464
176 1 0.648094 0.684684 0.141749
354 2 0.52982 0.684009 0.0714737
129 1 0.548781 0.583182 0.201913
187 1 0.769542 0.563464 0.0792167
127 1 0.771712 0.714825 0.00930591
195 1 0.985502 0.724246 0.113824
126 1 0.858019 0.640441 0.198131
310 2 0.770786 0.716771 0.135737
308 2 0.944687 0.613227 0.114688
77 1 0.54793 0.817561 0.105959
67 1 0.709617 0.846958 0.0863726
301 2 0.636153 0.912125 0.0199528
229 1 0.580226 0.96637 0.120414
185 1 0.67222 0.909455 0.221976
123 1 0.91703 0.854023 0.170112
193 1 0.904302 0.815337 0.0296604
101 1 0.768042 0.796075 0.236377
260 1 0.802414 0.972201 0.139706
237 1 0.548912 0.660537 0.489186
347 2 0.61783 0.511702 0.282923
74 1 0.573693 0.600227 0.353903
61 1 0.736073 0.568796 0.351717
52 1 0.688023 0.719439 0.414036
312 2 0.916773 0.58324 0.471467
316 2 0.756168 0.667226 0.258545
283 1 0.861056 0.659607 0.362948
270 1 0.99177 0.711329 0.259142
325 2 0.945049 0.572965 0.281482
151 1 0.830527 0.501228 0.449793
303 2 0.842382 0.504686 0.329679
29 1 0.996118 0.51882 0.384102
10 1 0.742431 0.943501 0.475513
18 1 0.580288 0.988834 0.317771
89 1 0.660344 0.864624 0.37598
57 1 0.631555 0.761911 0.267553
210 1 0.537465 0.807295 0.445194
256 1 0.506362 0.848 0.287217
134 1 0.955899 0.829971 0.353012
202 1 0.916867 0.96609 0.261019
44 1 0.784666 0.936421 0.313266
234 1 0.893392 0.982321 0.409256
163 1 0.818441 0.797922 0.416899
323 2 0.865283 0.762567 0.290002
299 2 0.981843 0.882737 0.468787
7 1 0.601458 0.600748 0.638806
148 1 0.574466 0.714819 0.71723
318 2 0.746789 0.61532 0.661762
109 1 0.657193 0.727179 0.577377
236 1 0.717176 0.512045 0.611244
336 2 0.654333 0.584849 0.512212
105 1 0.834104 0.745981 0.622315
96 1 0.877962 0.602498 0.621929
230 1 0.767428 0.636233 0.510615
27 1 0.930998 0.708566 0.507649
88 1 0.996803 0.512667 0.68317
98 1 0.722059 0.776919 0.70662
115 1 0.702306 0.906561 0.618555
80 1 0.547979 0.83895 0.619492
253 1 0.581688 0.996042 0.694686
320 2 0.671747 0.824625 0.507367
68 1 0.603587 0.936074 0.512897
119 1 0.882043 0.941515 0.736011
196 1 0.879187 0.864311 0.544235
332 2 0.816419 0.866953 0.654383
300 2 0.957363 0.846755 0.734449
272 1 0.983102 0.793144 0.618631
103 1 0.648887 0.513155 0.903768
201 1 0.586741 0.62707 0.842113
206 1 0.700663 0.560078 0.769943
344 2 0.699544 0.644109 0.895961
262 1 0.547258 0.507725 0.761043
43 1 0.91746 0.50952 0.987215
346 2 0.922208 0.702854 0.756967
314 2 0.801563 0.746565 0.889292
3 1 0.922597 0.714299 0.911727
149 1 0.794842 0.663473 0.79025
65 1 0.818291 0.594459 0.911887
199 1 0.916199 0.59428 0.797139
70 1 0.613578 0.752982 0.990945
158 1 0.739646 0.897275 0.803518
231 1 0.666273 0.753437 0.843853
146 1 0.574903 0.868725 0.769518
205 1 0.563131 0.888348 0.921562
288 1 0.513581 0.770482 0.862581
269 1 0.637313 0.998217 0.851595
219 1 0.851343 0.811574 0.786401
268 1 0.899021 0.900697 0.883719
282 1 0.762761 0.862212 0.944468
