
Host: log-1

Timers On : Thu Nov 30 14:49:35 2023
Timers Off: Thu Nov 30 14:49:35 2023

Wall Time:        0.42 seconds

                                                       Time (seconds)
Module                                       User      System        Wall        Calls

--------------------------------------------------------------------------------------

**************************************************************************************
